 vasp.6.3.0 20Jan22 (build Oct 14 2024 11:24:38) complex                        
  
 executed on             LinuxIFC date 2025.05.02  12:46:31
 running on   64 total cores
 distrk:  each k-point on   64 cores,    1 groups
 distr:  one band on NCORE=   8 cores,    8 groups


--------------------------------------------------------------------------------------------------------


 INCAR:
   ISTART = 0            (Read existing wavefunction
   ISPIN = 1            (Non-Spin polarised DFT)
   LREAL = .FALSE.       (Projection operators: automatic)
   ENCUT = 500          (Cut-off energy for plane wave basis set, in eV)
   PREC = Accurate     (Precision level)
   LWAVE = .FALSE.       (Write WAVECAR or not)
   LCHARG = .FALSE.       (Write CHGCAR or not)
   ISYM = 0             (0: disable symmetry)
   SYMPREC = 1E-06         (Symmetry detection precision, default\=1E-5)
   NSW = 0
   IBRION = -1
   ISMEAR = 0            (gaussian smearing method)
   SIGMA = 0.05         (please check the width of the smearing)
   NELM = 60           (Max electronic SCF steps)
   EDIFF = 1E-06        (SCF energy convergence
   NCORE = 8             (square root of total cores)
   NELECT = 840

 POTCAR:    PAW_PBE Ni 02Aug2007                  
 POTCAR:    PAW_PBE Nb_sv 25May2007               
 POTCAR:    PAW_PBE Fe 06Sep2000                  
 POTCAR:    PAW_PBE Sb 06Sep2000                  
 POTCAR:    PAW_PBE Ni 02Aug2007                  
   VRHFIN =Ni:                                                                                      
   LEXCH  = PE                                                                                      
   EATOM  =  1077.6739 eV,   79.2068 Ry                                                             
                                                                                                    
   TITEL  = PAW_PBE Ni 02Aug2007                                                                    
   LULTRA =        F    use ultrasoft PP ?                                                          
   IUNSCR =        1    unscreen: 0-lin 1-nonlin 2-no                                               
   RPACOR =    2.000    partial core radius                                                         
   POMASS =   58.690; ZVAL   =   10.000    mass and valenz                                          
   RCORE  =    2.300    outmost cutoff radius                                                       
   RWIGS  =    2.430; RWIGS  =    1.286    wigner-seitz radius (au A)                               
   ENMAX  =  269.532; ENMIN  =  202.149 eV                                                          
   RCLOC  =    1.201    cutoff for local pot                                                        
   LCOR   =        T    correct aug charges                                                         
   LPAW   =        T    paw PP                                                                      
   EAUG   =  544.565                                                                                
   DEXC   =    0.000                                                                                
   RMAX   =    2.357    core radius for proj-oper                                                   
   RAUG   =    1.300    factor for augmentation sphere                                              
   RDEP   =    2.390    radius for radial grids                                                     
   RDEPT  =    1.838    core radius for aug-charge                                                  
                                                                                                    
   Atomic configuration                                                                             
    9 entries                                                                                       
     n  l   j            E        occ.                                                              
     1  0  0.50     -8206.4253   2.0000                                                             
     2  0  0.50      -976.1748   2.0000                                                             
     2  1  1.50      -839.0571   6.0000                                                             
     3  0  0.50      -105.9991   2.0000                                                             
     3  1  1.50       -66.4603   6.0000                                                             
     3  2  2.50        -4.6458   9.0000                                                             
     4  0  0.50        -4.4926   1.0000                                                             
     4  1  1.50        -4.0817   0.0000                                                             
     4  3  2.50        -1.3606   0.0000                                                             
   Description                                                                                      
     l       E           TYP  RCUT    TYP  RCUT                                                     
     2     -4.6457903     23  2.300                                                                 
     2     -6.0063729     23  2.300                                                                 
     0     -4.4925590     23  2.300                                                                 
     0      5.0102601     23  2.300                                                                 
     1     -2.7211652     23  2.300                                                                 
     1     16.5183231     23  2.300                                                                 
  local pseudopotential read in
  partial core-charges read in
  partial kinetic energy density read in
  atomic valenz-charges read in
  non local Contribution for L=           2  read in
    real space projection operators read in
  non local Contribution for L=           2  read in
    real space projection operators read in
  non local Contribution for L=           0  read in
    real space projection operators read in
  non local Contribution for L=           0  read in
    real space projection operators read in
  non local Contribution for L=           1  read in
    real space projection operators read in
  non local Contribution for L=           1  read in
    real space projection operators read in
    PAW grid and wavefunctions read in
 
   number of l-projection  operators is LMAX  =           6
   number of lm-projection operators is LMMAX =          18
 
 POTCAR:    PAW_PBE Nb_sv 25May2007               
   VRHFIN =Nb: 4p5s4d                                                                               
   LEXCH  = PE                                                                                      
   EATOM  =  1555.1913 eV,  114.3033 Ry                                                             
                                                                                                    
   TITEL  = PAW_PBE Nb_sv 25May2007                                                                 
   LULTRA =        F    use ultrasoft PP ?                                                          
   IUNSCR =        1    unscreen: 0-lin 1-nonlin 2-no                                               
   RPACOR =    1.800    partial core radius                                                         
   POMASS =   92.910; ZVAL   =   13.000    mass and valenz                                          
   RCORE  =    2.400    outmost cutoff radius                                                       
   RWIGS  =    2.400; RWIGS  =    1.270    wigner-seitz radius (au A)                               
   ENMAX  =  293.235; ENMIN  =  219.927 eV                                                          
   ICORE  =        3    local potential                                                             
   LCOR   =        T    correct aug charges                                                         
   LPAW   =        T    paw PP                                                                      
   EAUG   =  455.659                                                                                
   DEXC   =    0.000                                                                                
   RMAX   =    2.456    core radius for proj-oper                                                   
   RAUG   =    1.300    factor for augmentation sphere                                              
   RDEP   =    2.451    radius for radial grids                                                     
   RDEPT  =    1.956    core radius for aug-charge                                                  
                                                                                                    
   Atomic configuration                                                                             
   11 entries                                                                                       
     n  l   j            E        occ.                                                              
     1  0  0.50    -18805.2457   2.0000                                                             
     2  0  0.50     -2630.2869   2.0000                                                             
     2  1  1.50     -2348.4046   6.0000                                                             
     3  0  0.50      -438.8757   2.0000                                                             
     3  1  1.50      -346.7588   6.0000                                                             
     3  2  2.50      -196.2560  10.0000                                                             
     4  0  0.50       -58.3859   2.0000                                                             
     5  0  0.50        -3.9816   1.0000                                                             
     4  1  1.50       -34.5141   6.0000                                                             
     4  2  2.50        -3.0408   4.0000                                                             
     4  3  2.50        -1.3606   0.0000                                                             
   Description                                                                                      
     l       E           TYP  RCUT    TYP  RCUT                                                     
     0    -58.3859094     23  2.200                                                                 
     0     -3.9816262     23  2.200                                                                 
     1    -34.5140738     23  2.200                                                                 
     1     13.6058260     23  2.200                                                                 
     2     -3.0408010     23  2.200                                                                 
     2     -0.1283038     23  2.200                                                                 
     3     -1.3605826     23  2.400                                                                 
  local pseudopotential read in
  partial core-charges read in
  partial kinetic energy density read in
  atomic valenz-charges read in
  non local Contribution for L=           0  read in
    real space projection operators read in
  non local Contribution for L=           0  read in
    real space projection operators read in
  non local Contribution for L=           1  read in
    real space projection operators read in
  non local Contribution for L=           1  read in
    real space projection operators read in
  non local Contribution for L=           2  read in
    real space projection operators read in
  non local Contribution for L=           2  read in
    real space projection operators read in
    PAW grid and wavefunctions read in
 
   number of l-projection  operators is LMAX  =           6
   number of lm-projection operators is LMMAX =          18
 
 POTCAR:    PAW_PBE Fe 06Sep2000                  
   VRHFIN =Fe:  d7 s1                                                                               
   LEXCH  = PE                                                                                      
   EATOM  =   594.3153 eV,   43.6809 Ry                                                             
                                                                                                    
   TITEL  = PAW_PBE Fe 06Sep2000                                                                    
   LULTRA =        F    use ultrasoft PP ?                                                          
   IUNSCR =        1    unscreen: 0-lin 1-nonlin 2-no                                               
   RPACOR =    2.000    partial core radius                                                         
   POMASS =   55.847; ZVAL   =    8.000    mass and valenz                                          
   RCORE  =    2.300    outmost cutoff radius                                                       
   RWIGS  =    2.460; RWIGS  =    1.302    wigner-seitz radius (au A)                               
   ENMAX  =  267.882; ENMIN  =  200.911 eV                                                          
   RCLOC  =    1.701    cutoff for local pot                                                        
   LCOR   =        T    correct aug charges                                                         
   LPAW   =        T    paw PP                                                                      
   EAUG   =  511.368                                                                                
   DEXC   =    0.000                                                                                
   RMAX   =    2.356    core radius for proj-oper                                                   
   RAUG   =    1.300    factor for augmentation sphere                                              
   RDEP   =    2.442    radius for radial grids                                                     
   RDEPT  =    1.890    core radius for aug-charge                                                  
                                                                                                    
   Atomic configuration                                                                             
    9 entries                                                                                       
     n  l   j            E        occ.                                                              
     1  0  0.50     -6993.8440   2.0000                                                             
     2  0  0.50      -814.6047   2.0000                                                             
     2  1  1.50      -693.3689   6.0000                                                             
     3  0  0.50       -89.4732   2.0000                                                             
     3  1  1.50       -55.6373   6.0000                                                             
     3  2  2.50        -3.8151   7.0000                                                             
     4  0  0.50        -4.2551   1.0000                                                             
     4  1  1.50        -3.4015   0.0000                                                             
     4  3  2.50        -1.3606   0.0000                                                             
   Description                                                                                      
     l       E           TYP  RCUT    TYP  RCUT                                                     
     2     -3.8151135     23  2.300                                                                 
     2     -5.1756961     23  2.300                                                                 
     0     -4.2550963     23  2.300                                                                 
     0      7.2035603     23  2.300                                                                 
     1     -2.7211652     23  2.300                                                                 
     1     18.4316424     23  2.300                                                                 
  local pseudopotential read in
  partial core-charges read in
  partial kinetic energy density read in
  atomic valenz-charges read in
  non local Contribution for L=           2  read in
    real space projection operators read in
  non local Contribution for L=           2  read in
    real space projection operators read in
  non local Contribution for L=           0  read in
    real space projection operators read in
  non local Contribution for L=           0  read in
    real space projection operators read in
  non local Contribution for L=           1  read in
    real space projection operators read in
  non local Contribution for L=           1  read in
    real space projection operators read in
    PAW grid and wavefunctions read in
 
   number of l-projection  operators is LMAX  =           6
   number of lm-projection operators is LMMAX =          18
 
 POTCAR:    PAW_PBE Sb 06Sep2000                  
   VRHFIN =Sb: s2p3                                                                                 
   LEXCH  = PE                                                                                      
   EATOM  =   149.9515 eV,   11.0211 Ry                                                             
                                                                                                    
   TITEL  = PAW_PBE Sb 06Sep2000                                                                    
   LULTRA =        F    use ultrasoft PP ?                                                          
   IUNSCR =        1    unscreen: 0-lin 1-nonlin 2-no                                               
   RPACOR =    2.200    partial core radius                                                         
   POMASS =  121.750; ZVAL   =    5.000    mass and valenz                                          
   RCORE  =    2.300    outmost cutoff radius                                                       
   RWIGS  =    2.980; RWIGS  =    1.577    wigner-seitz radius (au A)                               
   ENMAX  =  172.069; ENMIN  =  129.052 eV                                                          
   ICORE  =        3    local potential                                                             
   LCOR   =        T    correct aug charges                                                         
   LPAW   =        T    paw PP                                                                      
   EAUG   =  380.513                                                                                
   DEXC   =    0.000                                                                                
   RMAX   =    2.346    core radius for proj-oper                                                   
   RAUG   =    1.300    factor for augmentation sphere                                              
   RDEP   =    2.360    radius for radial grids                                                     
   RDEPT  =    2.192    core radius for aug-charge                                                  
                                                                                                    
   Atomic configuration                                                                             
   13 entries                                                                                       
     n  l   j            E        occ.                                                              
     1  0  0.50    -30298.2797   2.0000                                                             
     2  0  0.50     -4610.2252   2.0000                                                             
     2  1  1.50     -4138.3407   6.0000                                                             
     3  0  0.50      -903.8815   2.0000                                                             
     3  1  1.50      -750.1337   6.0000                                                             
     3  2  2.50      -515.7092  10.0000                                                             
     4  0  0.50      -148.8034   2.0000                                                             
     4  1  1.50      -101.7581   6.0000                                                             
     4  2  2.50       -33.5048  10.0000                                                             
     5  0  0.50       -12.8298   2.0000                                                             
     5  1  0.50        -4.8276   3.0000                                                             
     5  2  1.50        -4.0817   0.0000                                                             
     4  3  2.50        -4.0817   0.0000                                                             
   Description                                                                                      
     l       E           TYP  RCUT    TYP  RCUT                                                     
     0    -12.8297861     23  2.300                                                                 
     0     13.6058260     23  2.300                                                                 
     1     -4.8275512     23  2.300                                                                 
     1     -0.7245443     23  2.300                                                                 
     2     -4.0817478     23  2.300                                                                 
     3     -1.3605826     23  2.300                                                                 
  local pseudopotential read in
  partial core-charges read in
  partial kinetic energy density read in
  atomic valenz-charges read in
  non local Contribution for L=           0  read in
    real space projection operators read in
  non local Contribution for L=           0  read in
    real space projection operators read in
  non local Contribution for L=           1  read in
    real space projection operators read in
  non local Contribution for L=           1  read in
    real space projection operators read in
  non local Contribution for L=           2  read in
    real space projection operators read in
    PAW grid and wavefunctions read in
 
   number of l-projection  operators is LMAX  =           5
   number of lm-projection operators is LMMAX =          13
 
 -----------------------------------------------------------------------------
|                                                                             |
|               ----> ADVICE to this user running VASP <----                  |
|                                                                             |
|     You have a (more or less) 'large supercell' and for larger cells it     |
|     might be more efficient to use real-space projection operators.         |
|     Therefore, try LREAL= Auto in the INCAR file.                           |
|     Mind: For very accurate calculation, you might also keep the            |
|     reciprocal projection scheme (i.e. LREAL=.FALSE.).                      |
|                                                                             |
 -----------------------------------------------------------------------------

  PAW_PBE Ni 02Aug2007                  :
 energy of atom  1       EATOM=-1077.6739
 kinetic energy error for atom=    0.0030 (will be added to EATOM!!)
  PAW_PBE Nb_sv 25May2007               :
 energy of atom  2       EATOM=-1555.1913
 kinetic energy error for atom=    0.0069 (will be added to EATOM!!)
  PAW_PBE Fe 06Sep2000                  :
 energy of atom  3       EATOM= -594.3153
 kinetic energy error for atom=    0.0026 (will be added to EATOM!!)
  PAW_PBE Sb 06Sep2000                  :
 energy of atom  4       EATOM= -149.9515
 kinetic energy error for atom=    0.0005 (will be added to EATOM!!)
 
 
 POSCAR: Relaxed POSCAR
  positions in direct lattice
  velocities in cartesian coordinates
 exchange correlation table for  LEXCH =        8
   RHO(1)=    0.500       N(1)  =     2000
   RHO(2)=  100.500       N(2)  =     4000
 


--------------------------------------------------------------------------------------------------------


 ion  position               nearest neighbor table
   1  0.125  0.125  0.125-  66 2.62  82 2.62  90 2.62  74 2.62  18 2.64  26 2.64  10 2.64   2 2.64
                            50 2.98  54 2.98  34 2.98  35 2.98  42 2.98  44 2.98
   2  0.997  0.997  0.997-  65 2.54  35 2.60  54 2.60  44 2.60   1 2.64  92 2.95  83 2.95  70 2.95
                            66 3.04  90 3.04  82 3.04
   3  1.000  1.000  0.500-  45 2.58  55 2.58  34 2.58  64 2.59  82 2.96  83 2.97  71 2.98  93 2.98
                            91 2.98  67 2.98
   4  1.000  0.500  1.000-  37 2.58  56 2.58  42 2.58  63 2.59  90 2.96  92 2.97  85 2.98  72 2.98
                            84 2.98  68 2.98
   5  1.000  0.500  0.500-  57 2.57  62 2.57  36 2.58  43 2.58  85 2.97  93 2.97  73 2.98  69 2.98
                            91 2.98  84 2.98
   6  0.500  1.000  1.000-  39 2.58  48 2.58  50 2.58  61 2.59  66 2.96  70 2.97  87 2.98  96 2.98
                            94 2.98  86 2.98
   7  0.500  1.000  0.500-  49 2.57  60 2.57  51 2.58  38 2.58  71 2.97  87 2.97  97 2.98  95 2.98
                            86 2.98  67 2.98
   8  0.500  0.500  1.000-  41 2.57  59 2.57  52 2.58  46 2.58  72 2.97  96 2.97  89 2.98  88 2.98
                            94 2.98  68 2.98
   9  0.500  0.500  0.500-  58 2.56  47 2.58  53 2.58  40 2.58  73 2.97  89 2.97  97 2.97  95 2.98
                            88 2.98  69 2.98
  10  0.997  0.253  0.253-  62 2.54  42 2.60  34 2.60  54 2.60   1 2.64  84 2.95  78 2.95  91 2.95
                            74 3.04  90 3.04  82 3.04
  11  1.000  0.250  0.750-  43 2.58  55 2.58  35 2.58  63 2.59  90 2.96  91 2.97  79 2.98  85 2.98
                            83 2.98  75 2.98
  12  1.000  0.750  0.250-  36 2.58  56 2.58  44 2.58  64 2.59  82 2.96  84 2.97  93 2.98  80 2.98
                            92 2.98  76 2.98
  13  1.000  0.750  0.750-  57 2.57  65 2.57  45 2.58  37 2.58  85 2.97  93 2.97  81 2.98  77 2.98
                            92 2.98  83 2.98
  14  0.500  0.250  0.250-  38 2.58  46 2.58  50 2.58  58 2.59  74 2.96  78 2.97  95 2.98  88 2.98
                            94 2.98  86 2.98
  15  0.500  0.250  0.750-  47 2.57  59 2.57  51 2.58  39 2.58  79 2.97  95 2.97  89 2.98  87 2.98
                            94 2.98  75 2.98
  16  0.500  0.750  0.250-  40 2.57  60 2.57  48 2.58  52 2.58  80 2.97  88 2.97  97 2.98  96 2.98
                            86 2.98  76 2.98
  17  0.500  0.750  0.750-  61 2.56  49 2.58  41 2.58  53 2.58  81 2.97  89 2.97  97 2.97  87 2.98
                            96 2.98  77 2.98
  18  0.253  0.997  0.253-  60 2.54  44 2.60  50 2.60  34 2.60   1 2.64  76 2.95  67 2.95  86 2.95
                            66 3.04  82 3.04  74 3.04
  19  0.250  1.000  0.750-  51 2.58  45 2.58  35 2.58  61 2.59  66 2.96  67 2.97  87 2.98  77 2.98
                            83 2.98  75 2.98
  20  0.250  0.500  0.250-  52 2.58  36 2.58  42 2.58  58 2.59  74 2.96  76 2.97  69 2.98  88 2.98
                            68 2.98  84 2.98
  21  0.250  0.500  0.750-  53 2.57  59 2.57  37 2.58  43 2.58  69 2.97  77 2.97  89 2.98  85 2.98
                            75 2.98  68 2.98
  22  0.750  1.000  0.250-  38 2.58  48 2.58  54 2.58  64 2.59  82 2.96  86 2.97  71 2.98  80 2.98
                            78 2.98  70 2.98
  23  0.750  1.000  0.750-  49 2.57  65 2.57  55 2.58  39 2.58  71 2.97  87 2.97  81 2.98  79 2.98
                            83 2.98  70 2.98
  24  0.750  0.500  0.250-  40 2.57  62 2.57  56 2.58  46 2.58  80 2.97  88 2.97  73 2.98  72 2.98
                            84 2.98  78 2.98
  25  0.750  0.500  0.750-  63 2.56  57 2.58  41 2.58  47 2.58  73 2.97  81 2.97  89 2.97  79 2.98
                            85 2.98  72 2.98
  26  0.253  0.253  0.997-  59 2.54  42 2.60  50 2.60  35 2.60   1 2.64  68 2.95  75 2.95  94 2.95
                            66 3.04  90 3.04  74 3.04
  27  0.250  0.250  0.500-  43 2.58  51 2.58  34 2.58  58 2.59  74 2.96  75 2.97  95 2.98  69 2.98
                            91 2.98  67 2.98
  28  0.250  0.750  1.000-  52 2.58  37 2.58  44 2.58  61 2.59  66 2.96  68 2.97  77 2.98  96 2.98
                            76 2.98  92 2.98
  29  0.250  0.750  0.500-  53 2.57  60 2.57  45 2.58  36 2.58  69 2.97  77 2.97  97 2.98  93 2.98
                            76 2.98  67 2.98
  30  0.750  0.250  1.000-  39 2.58  46 2.58  54 2.58  63 2.59  90 2.96  94 2.97  79 2.98  72 2.98
                            78 2.98  70 2.98
  31  0.750  0.250  0.500-  47 2.57  62 2.57  55 2.58  38 2.58  79 2.97  95 2.97  73 2.98  71 2.98
                            91 2.98  78 2.98
  32  0.750  0.750  1.000-  41 2.57  65 2.57  56 2.58  48 2.58  72 2.97  96 2.97  81 2.98  80 2.98
                            92 2.98  70 2.98
  33  0.750  0.750  0.500-  64 2.56  57 2.58  49 2.58  40 2.58  73 2.97  81 2.97  97 2.97  71 2.98
                            93 2.98  80 2.98
  34  0.125  0.125  0.375-   3 2.58  27 2.58  67 2.58  91 2.58  74 2.60  82 2.60  18 2.60  10 2.60
                             1 2.98
  35  0.125  0.125  0.875-  11 2.58  19 2.58  75 2.58  83 2.58  66 2.60  90 2.60   2 2.60  26 2.60
                             1 2.98
  36  0.125  0.625  0.375-  76 2.57  84 2.57  12 2.58  20 2.58  69 2.58  93 2.58   5 2.58  29 2.58

  37  0.125  0.625  0.875-  68 2.57  92 2.57   4 2.58  28 2.58  77 2.58  85 2.58  21 2.58  13 2.58

  38  0.625  0.125  0.375-  78 2.57  86 2.57  14 2.58  22 2.58  71 2.58  95 2.58   7 2.58  31 2.58

  39  0.625  0.125  0.875-  70 2.57  94 2.57   6 2.58  30 2.58  79 2.58  87 2.58  23 2.58  15 2.58

  40  0.625  0.625  0.375-  16 2.57  24 2.57  80 2.58  88 2.58  73 2.58  97 2.58   9 2.58  33 2.58

  41  0.625  0.625  0.875-   8 2.57  32 2.57  72 2.58  96 2.58  81 2.58  89 2.58  25 2.58  17 2.58

  42  0.125  0.375  0.125-   4 2.58  20 2.58  68 2.58  84 2.58  74 2.60  90 2.60  10 2.60  26 2.60
                             1 2.98
  43  0.125  0.375  0.625-  75 2.57  91 2.57  11 2.58  27 2.58  85 2.58  69 2.58   5 2.58  21 2.58

  44  0.125  0.875  0.125-  12 2.58  28 2.58  76 2.58  92 2.58  82 2.60  66 2.60  18 2.60   2 2.60
                             1 2.98
  45  0.125  0.875  0.625-  67 2.57  83 2.57   3 2.58  19 2.58  77 2.58  93 2.58  13 2.58  29 2.58

  46  0.625  0.375  0.125-  78 2.57  94 2.57  14 2.58  30 2.58  88 2.58  72 2.58  24 2.58   8 2.58

  47  0.625  0.375  0.625-  15 2.57  31 2.57  79 2.58  95 2.58  89 2.58  73 2.58   9 2.58  25 2.58

  48  0.625  0.875  0.125-  70 2.57  86 2.57   6 2.58  22 2.58  80 2.58  96 2.58  16 2.58  32 2.58

  49  0.625  0.875  0.625-   7 2.57  23 2.57  71 2.58  87 2.58  81 2.58  97 2.58  17 2.58  33 2.58

  50  0.375  0.125  0.125-   6 2.58  14 2.58  86 2.58  94 2.58  74 2.60  66 2.60  18 2.60  26 2.60
                             1 2.98
  51  0.375  0.125  0.625-  75 2.57  67 2.57  19 2.58  27 2.58  87 2.58  95 2.58   7 2.58  15 2.58

  52  0.375  0.625  0.125-  76 2.57  68 2.57  20 2.58  28 2.58  88 2.58  96 2.58   8 2.58  16 2.58

  53  0.375  0.625  0.625-  21 2.57  29 2.57  69 2.58  77 2.58  89 2.58  97 2.58   9 2.58  17 2.58

  54  0.875  0.125  0.125-  22 2.58  30 2.58  78 2.58  70 2.58  82 2.60  90 2.60   2 2.60  10 2.60
                             1 2.98
  55  0.875  0.125  0.625-  91 2.57  83 2.57   3 2.58  11 2.58  79 2.58  71 2.58  23 2.58  31 2.58

  56  0.875  0.625  0.125-  92 2.57  84 2.57   4 2.58  12 2.58  80 2.58  72 2.58  24 2.58  32 2.58

  57  0.875  0.625  0.625-   5 2.57  13 2.57  93 2.58  85 2.58  81 2.58  73 2.58  25 2.58  33 2.58

  58  0.376  0.376  0.376-   9 2.56  74 2.56  88 2.57  69 2.57  95 2.57  14 2.59  20 2.59  27 2.59

  59  0.376  0.376  0.874-  26 2.54  89 2.56  15 2.57  21 2.57   8 2.57  68 2.59  94 2.59  75 2.59

  60  0.376  0.874  0.376-  18 2.54  97 2.56  29 2.57  16 2.57   7 2.57  86 2.59  67 2.59  76 2.59

  61  0.376  0.874  0.874-  17 2.56  66 2.56  87 2.57  96 2.57  77 2.57  28 2.59  19 2.59   6 2.59

  62  0.874  0.376  0.376-  10 2.54  73 2.56  31 2.57  24 2.57   5 2.57  84 2.59  78 2.59  91 2.59

  63  0.874  0.376  0.874-  25 2.56  90 2.56  79 2.57  85 2.57  72 2.57  30 2.59   4 2.59  11 2.59

  64  0.874  0.874  0.376-  33 2.56  82 2.56  80 2.57  71 2.57  93 2.57  22 2.59  12 2.59   3 2.59

  65  0.874  0.874  0.874-   2 2.54  81 2.56  23 2.57  32 2.57  13 2.57  70 2.59  83 2.59  92 2.59

  66  0.252  0.998  0.998-  61 2.56  44 2.60  35 2.60  50 2.60   1 2.62  28 2.96  19 2.96   6 2.96
                            26 3.04  18 3.04   2 3.04
  67  0.250  1.000  0.501-  45 2.57  51 2.57  34 2.58  60 2.59  18 2.95  19 2.97   7 2.98  29 2.98
                            27 2.98   3 2.98
  68  0.250  0.501  1.000-  37 2.57  52 2.57  42 2.58  59 2.59  26 2.95  28 2.97   8 2.98  21 2.98
                            20 2.98   4 2.98
  69  0.250  0.500  0.500-  58 2.57  53 2.58  36 2.58  43 2.58  21 2.97  29 2.97  20 2.98  27 2.98
                             5 2.98   9 2.98
  70  0.749  1.000  1.000-  48 2.57  39 2.57  54 2.58  65 2.59   2 2.95   6 2.97  23 2.98  32 2.98
                            30 2.98  22 2.98
  71  0.750  0.000  0.500-  64 2.57  49 2.58  38 2.58  55 2.58   7 2.97  23 2.97  22 2.98   3 2.98
                            31 2.98  33 2.98
  72  0.750  0.500  0.000-  63 2.57  41 2.58  46 2.58  56 2.58   8 2.97  32 2.97  30 2.98   4 2.98
                            24 2.98  25 2.98
  73  0.750  0.500  0.500-  62 2.56  47 2.58  57 2.58  40 2.58  25 2.97  33 2.97   9 2.97  31 2.98
                            24 2.98   5 2.98
  74  0.252  0.252  0.252-  58 2.56  42 2.60  50 2.60  34 2.60   1 2.62  20 2.96  14 2.96  27 2.96
                            26 3.04  18 3.04  10 3.04
  75  0.250  0.250  0.749-  43 2.57  51 2.57  35 2.58  59 2.59  26 2.95  27 2.97  15 2.98  21 2.98
                            19 2.98  11 2.98
  76  0.250  0.749  0.250-  36 2.57  52 2.57  44 2.58  60 2.59  18 2.95  20 2.97  16 2.98  29 2.98
                            28 2.98  12 2.98
  77  0.250  0.750  0.750-  61 2.57  53 2.58  37 2.58  45 2.58  21 2.97  29 2.97  28 2.98  19 2.98
                            13 2.98  17 2.98
  78  0.749  0.250  0.250-  38 2.57  46 2.57  54 2.58  62 2.59  10 2.95  14 2.97  24 2.98  31 2.98
                            30 2.98  22 2.98
  79  0.750  0.250  0.750-  63 2.57  47 2.58  55 2.58  39 2.58  15 2.97  31 2.97  30 2.98  11 2.98
                            23 2.98  25 2.98
  80  0.750  0.750  0.250-  64 2.57  40 2.58  56 2.58  48 2.58  16 2.97  24 2.97  22 2.98  12 2.98
                            32 2.98  33 2.98
  81  0.750  0.750  0.750-  65 2.56  49 2.58  57 2.58  41 2.58  25 2.97  33 2.97  17 2.97  23 2.98
                            32 2.98  13 2.98
  82  0.998  0.998  0.252-  64 2.56  54 2.60  44 2.60  34 2.60   1 2.62  12 2.96   3 2.96  22 2.96
                            18 3.04  10 3.04   2 3.04
  83  1.000  1.000  0.749-  45 2.57  55 2.57  35 2.58  65 2.59   2 2.95   3 2.97  13 2.98  23 2.98
                            19 2.98  11 2.98
  84  1.000  0.501  0.250-  56 2.57  36 2.57  42 2.58  62 2.59  10 2.95  12 2.97   5 2.98  24 2.98
                             4 2.98  20 2.98
  85  0.000  0.500  0.750-  63 2.57  57 2.58  43 2.58  37 2.58   5 2.97  13 2.97   4 2.98  11 2.98
                            21 2.98  25 2.98
  86  0.501  1.000  0.250-  48 2.57  38 2.57  50 2.58  60 2.59  18 2.95  22 2.97   7 2.98  16 2.98
                            14 2.98   6 2.98
  87  0.500  0.000  0.750-  61 2.57  49 2.58  51 2.58  39 2.58   7 2.97  23 2.97  19 2.98   6 2.98
                            15 2.98  17 2.98
  88  0.500  0.500  0.250-  58 2.57  40 2.58  52 2.58  46 2.58  16 2.97  24 2.97  20 2.98  14 2.98
                             8 2.98   9 2.98
  89  0.500  0.500  0.750-  59 2.56  53 2.58  47 2.58  41 2.58  17 2.97  25 2.97   9 2.97  15 2.98
                            21 2.98   8 2.98
  90  0.998  0.252  0.998-  63 2.56  54 2.60  35 2.60  42 2.60   1 2.62   4 2.96  11 2.96  30 2.96
                            26 3.04  10 3.04   2 3.04
  91  1.000  0.250  0.501-  55 2.57  43 2.57  34 2.58  62 2.59  10 2.95  11 2.97   5 2.98  31 2.98
                            27 2.98   3 2.98
  92  1.000  0.749  1.000-  37 2.57  56 2.57  44 2.58  65 2.59   2 2.95   4 2.97  13 2.98  32 2.98
                            12 2.98  28 2.98
  93  0.000  0.750  0.500-  64 2.57  57 2.58  36 2.58  45 2.58   5 2.97  13 2.97  12 2.98   3 2.98
                            29 2.98  33 2.98
  94  0.501  0.250  1.000-  39 2.57  46 2.57  50 2.58  59 2.59  26 2.95  30 2.97   8 2.98  15 2.98
                            14 2.98   6 2.98
  95  0.500  0.250  0.500-  58 2.57  47 2.58  51 2.58  38 2.58  15 2.97  31 2.97  27 2.98  14 2.98
                             7 2.98   9 2.98
  96  0.500  0.750  0.000-  61 2.57  41 2.58  52 2.58  48 2.58   8 2.97  32 2.97  28 2.98   6 2.98
                            16 2.98  17 2.98
  97  0.500  0.750  0.500-  60 2.56  53 2.58  40 2.58  49 2.58  17 2.97  33 2.97   9 2.97   7 2.98
                            29 2.98  16 2.98
 

IMPORTANT INFORMATION: All symmetrisations will be switched off!
NOSYMM: (Re-)initialisation of all symmetry stuff for point group C_1.


----------------------------------------------------------------------------------------

                                     Primitive cell                                     

  volume of cell :    1689.3517

  direct lattice vectors                    reciprocal lattice vectors
    11.909860967  0.000000000  0.000000000     0.083964036 -0.000000000 -0.000000000
     0.000000000 11.909860967  0.000000000     0.000000000  0.083964036 -0.000000000
     0.000000000  0.000000000 11.909860967     0.000000000  0.000000000  0.083964036

  length of vectors
    11.909860967 11.909860967 11.909860967     0.083964036  0.083964036  0.083964036

  position of ions in fractional coordinates (direct lattice)
     0.125000000  0.125000000  0.125000000
     0.997015554  0.997015554  0.997015554
     0.999877047  0.999877047  0.500271483
     0.999877047  0.500271483  0.999877047
     0.999724373  0.500289800  0.500289800
     0.500271483  0.999877047  0.999877047
     0.500289800  0.999724373  0.500289800
     0.500289800  0.500289800  0.999724373
     0.500012350  0.500012350  0.500012350
     0.997015554  0.252984446  0.252984446
     0.999877047  0.250122953  0.749728517
     0.999877047  0.749728517  0.250122953
     0.999724373  0.749710200  0.749710200
     0.500271483  0.250122953  0.250122953
     0.500289800  0.250275627  0.749710200
     0.500289800  0.749710200  0.250275627
     0.500012350  0.749987650  0.749987650
     0.252984446  0.997015554  0.252984446
     0.250122953  0.999877047  0.749728517
     0.250122953  0.500271483  0.250122953
     0.250275627  0.500289800  0.749710200
     0.749728517  0.999877047  0.250122953
     0.749710200  0.999724373  0.749710200
     0.749710200  0.500289800  0.250275627
     0.749987650  0.500012350  0.749987650
     0.252984446  0.252984446  0.997015554
     0.250122953  0.250122953  0.500271483
     0.250122953  0.749728517  0.999877047
     0.250275627  0.749710200  0.500289800
     0.749728517  0.250122953  0.999877047
     0.749710200  0.250275627  0.500289800
     0.749710200  0.749710200  0.999724373
     0.749987650  0.749987650  0.500012350
     0.125000000  0.125000000  0.375456412
     0.125000000  0.125000000  0.874543588
     0.125000000  0.625000000  0.374886074
     0.125000000  0.625000000  0.875113926
     0.625000000  0.125000000  0.374886074
     0.625000000  0.125000000  0.875113926
     0.625000000  0.625000000  0.374651574
     0.625000000  0.625000000  0.875348426
     0.125000000  0.375456412  0.125000000
     0.125000000  0.374886074  0.625000000
     0.125000000  0.874543588  0.125000000
     0.125000000  0.875113926  0.625000000
     0.625000000  0.374886074  0.125000000
     0.625000000  0.374651574  0.625000000
     0.625000000  0.875113926  0.125000000
     0.625000000  0.875348426  0.625000000
     0.375456412  0.125000000  0.125000000
     0.374886074  0.125000000  0.625000000
     0.374886074  0.625000000  0.125000000
     0.374651574  0.625000000  0.625000000
     0.874543588  0.125000000  0.125000000
     0.875113926  0.125000000  0.625000000
     0.875113926  0.625000000  0.125000000
     0.875348426  0.625000000  0.625000000
     0.376105047  0.376105047  0.376105047
     0.376209230  0.376209230  0.873790770
     0.376209230  0.873790770  0.376209230
     0.376105047  0.873894953  0.873894953
     0.873790770  0.376209230  0.376209230
     0.873894953  0.376105047  0.873894953
     0.873894953  0.873894953  0.376105047
     0.873790770  0.873790770  0.873790770
     0.252073161  0.997926839  0.997926839
     0.250102813  0.999897187  0.500554165
     0.250102813  0.500554165  0.999897187
     0.249854151  0.500075888  0.500075888
     0.749445835  0.999897187  0.999897187
     0.749924112  0.000145849  0.500075888
     0.749924112  0.500075888  0.000145849
     0.749622833  0.500377167  0.500377167
     0.252073161  0.252073161  0.252073161
     0.250102813  0.250102813  0.749445835
     0.250102813  0.749445835  0.250102813
     0.249854151  0.749924112  0.749924112
     0.749445835  0.250102813  0.250102813
     0.749924112  0.249854151  0.749924112
     0.749924112  0.749924112  0.249854151
     0.749622833  0.749622833  0.749622833
     0.997926839  0.997926839  0.252073161
     0.999897187  0.999897187  0.749445835
     0.999897187  0.500554165  0.250102813
     0.000145849  0.500075888  0.749924112
     0.500554165  0.999897187  0.250102813
     0.500075888  0.000145849  0.749924112
     0.500075888  0.500075888  0.249854151
     0.500377167  0.500377167  0.749622833
     0.997926839  0.252073161  0.997926839
     0.999897187  0.250102813  0.500554165
     0.999897187  0.749445835  0.999897187
     0.000145849  0.749924112  0.500075888
     0.500554165  0.250102813  0.999897187
     0.500075888  0.249854151  0.500075888
     0.500075888  0.749924112  0.000145849
     0.500377167  0.749622833  0.500377167

  ion indices of the primitive-cell ions
   primitive index   ion index
                 1           1
                 2           2
                 3           3
                 4           4
                 5           5
                 6           6
                 7           7
                 8           8
                 9           9
                10          10
                11          11
                12          12
                13          13
                14          14
                15          15
                16          16
                17          17
                18          18
                19          19
                20          20
                21          21
                22          22
                23          23
                24          24
                25          25
                26          26
                27          27
                28          28
                29          29
                30          30
                31          31
                32          32
                33          33
                34          34
                35          35
                36          36
                37          37
                38          38
                39          39
                40          40
                41          41
                42          42
                43          43
                44          44
                45          45
                46          46
                47          47
                48          48
                49          49
                50          50
                51          51
                52          52
                53          53
                54          54
                55          55
                56          56
                57          57
                58          58
                59          59
                60          60
                61          61
                62          62
                63          63
                64          64
                65          65
                66          66
                67          67
                68          68
                69          69
                70          70
                71          71
                72          72
                73          73
                74          74
                75          75
                76          76
                77          77
                78          78
                79          79
                80          80
                81          81
                82          82
                83          83
                84          84
                85          85
                86          86
                87          87
                88          88
                89          89
                90          90
                91          91
                92          92
                93          93
                94          94
                95          95
                96          96
                97          97

----------------------------------------------------------------------------------------

 
 
 KPOINTS: K-Spacing Value to Generate K-Mesh: 0.02

Automatic generation of k-mesh.
 Grid dimensions read from file:
 generate k-points for:    4    4    4

 Generating k-lattice:

  Cartesian coordinates                     Fractional coordinates (reciprocal lattice)
     0.020991009 -0.000000000 -0.000000000     0.250000000 -0.000000000  0.000000000
     0.000000000  0.020991009 -0.000000000     0.000000000  0.250000000 -0.000000000
     0.000000000  0.000000000  0.020991009     0.000000000  0.000000000  0.250000000

  Length of vectors
     0.020991009  0.020991009  0.020991009

  Shift w.r.t. Gamma in fractional coordinates (k-lattice)
     0.500000000  0.500000000  0.500000000

 
 Subroutine IBZKPT returns following result:
 ===========================================
 
 Found     32 irreducible k-points:
 
 Following reciprocal coordinates:
            Coordinates               Weight
  0.125000  0.125000  0.125000      2.000000
 -0.125000  0.125000  0.125000      2.000000
 -0.125000 -0.125000  0.125000      2.000000
  0.125000 -0.125000  0.125000      2.000000
  0.375000  0.125000  0.125000      2.000000
  0.125000  0.375000  0.125000      2.000000
  0.125000  0.125000  0.375000      2.000000
 -0.125000  0.375000  0.125000      2.000000
 -0.375000  0.125000  0.125000      2.000000
 -0.125000  0.125000  0.375000      2.000000
 -0.375000 -0.125000  0.125000      2.000000
 -0.125000 -0.375000  0.125000      2.000000
 -0.125000 -0.125000  0.375000      2.000000
  0.125000 -0.375000  0.125000      2.000000
  0.375000 -0.125000  0.125000      2.000000
  0.125000 -0.125000  0.375000      2.000000
  0.375000  0.375000  0.125000      2.000000
  0.125000  0.375000  0.375000      2.000000
  0.375000  0.125000  0.375000      2.000000
 -0.375000  0.375000  0.125000      2.000000
 -0.375000  0.125000  0.375000      2.000000
 -0.125000  0.375000  0.375000      2.000000
 -0.375000 -0.375000  0.125000      2.000000
 -0.125000 -0.375000  0.375000      2.000000
 -0.375000 -0.125000  0.375000      2.000000
  0.375000 -0.375000  0.125000      2.000000
  0.375000 -0.125000  0.375000      2.000000
  0.125000 -0.375000  0.375000      2.000000
  0.375000  0.375000  0.375000      2.000000
 -0.375000  0.375000  0.375000      2.000000
 -0.375000 -0.375000  0.375000      2.000000
  0.375000 -0.375000  0.375000      2.000000
 
 Following cartesian coordinates:
            Coordinates               Weight
  0.010496  0.010496  0.010496      2.000000
 -0.010496  0.010496  0.010496      2.000000
 -0.010496 -0.010496  0.010496      2.000000
  0.010496 -0.010496  0.010496      2.000000
  0.031487  0.010496  0.010496      2.000000
  0.010496  0.031487  0.010496      2.000000
  0.010496  0.010496  0.031487      2.000000
 -0.010496  0.031487  0.010496      2.000000
 -0.031487  0.010496  0.010496      2.000000
 -0.010496  0.010496  0.031487      2.000000
 -0.031487 -0.010496  0.010496      2.000000
 -0.010496 -0.031487  0.010496      2.000000
 -0.010496 -0.010496  0.031487      2.000000
  0.010496 -0.031487  0.010496      2.000000
  0.031487 -0.010496  0.010496      2.000000
  0.010496 -0.010496  0.031487      2.000000
  0.031487  0.031487  0.010496      2.000000
  0.010496  0.031487  0.031487      2.000000
  0.031487  0.010496  0.031487      2.000000
 -0.031487  0.031487  0.010496      2.000000
 -0.031487  0.010496  0.031487      2.000000
 -0.010496  0.031487  0.031487      2.000000
 -0.031487 -0.031487  0.010496      2.000000
 -0.010496 -0.031487  0.031487      2.000000
 -0.031487 -0.010496  0.031487      2.000000
  0.031487 -0.031487  0.010496      2.000000
  0.031487 -0.010496  0.031487      2.000000
  0.010496 -0.031487  0.031487      2.000000
  0.031487  0.031487  0.031487      2.000000
 -0.031487  0.031487  0.031487      2.000000
 -0.031487 -0.031487  0.031487      2.000000
  0.031487 -0.031487  0.031487      2.000000
 


--------------------------------------------------------------------------------------------------------




 Dimension of arrays:
   k-points           NKPTS =     32   k-points in BZ     NKDIM =     32   number of bands    NBANDS=    504
   number of dos      NEDOS =    301   number of ions     NIONS =     97
   non local maximal  LDIM  =      6   non local SUM 2l+1 LMDIM =     18
   total plane-waves  NPLWV = 729000
   max r-space proj   IRMAX =      1   max aug-charges    IRDMAX=  24145
   dimension x,y,z NGX =    90 NGY =   90 NGZ =   90
   dimension x,y,z NGXF=   180 NGYF=  180 NGZF=  180
   support grid    NGXF=   180 NGYF=  180 NGZF=  180
   ions per type =               1  32  32  32
   NGX,Y,Z   is equivalent  to a cutoff of  12.56, 12.56, 12.56 a.u.
   NGXF,Y,Z  is equivalent  to a cutoff of  25.13, 25.13, 25.13 a.u.

 SYSTEM =  unknown system                          
 POSCAR =  Relaxed POSCAR                          

 Startparameter for this run:
   NWRITE =      2    write-flag & timer
   PREC   = accura    normal or accurate (medium, high low for compatibility)
   ISTART =      0    job   : 0-new  1-cont  2-samecut
   ICHARG =      2    charge: 1-file 2-atom 10-const
   ISPIN  =      1    spin polarized calculation?
   LNONCOLLINEAR =      F non collinear calculations
   LSORBIT =      F    spin-orbit coupling
   INIWAV =      1    electr: 0-lowe 1-rand  2-diag
   LASPH  =      F    aspherical Exc in radial PAW
 Electronic Relaxation 1
   ENCUT  =  500.0 eV  36.75 Ry    6.06 a.u.  21.71 21.71 21.71*2*pi/ulx,y,z
   ENINI  =  500.0     initial cutoff
   ENAUG  =  544.6 eV  augmentation charge cutoff
   NELM   =     60;   NELMIN=  2; NELMDL= -5     # of ELM steps 
   EDIFF  = 0.1E-05   stopping-criterion for ELM
   LREAL  =      F    real-space projection
   NLSPLINE    = F    spline interpolate recip. space projectors
   LCOMPAT=      F    compatible to vasp.4.4
   GGA_COMPAT  = T    GGA compatible to vasp.4.4-vasp.4.6
   LMAXPAW     = -100 max onsite density
   LMAXMIX     =    2 max onsite mixed and CHGCAR
   VOSKOWN=      0    Vosko Wilk Nusair interpolation
   ROPT   =    0.00000   0.00000   0.00000   0.00000
 Ionic relaxation
   EDIFFG = 0.1E-04   stopping-criterion for IOM
   NSW    =      0    number of steps for IOM
   NBLOCK =      1;   KBLOCK =      1    inner block; outer block 
   IBRION =     -1    ionic relax: 0-MD 1-quasi-New 2-CG
   NFREE  =      0    steps in history (QN), initial steepest desc. (CG)
   ISIF   =      2    stress and relaxation
   IWAVPR =     10    prediction:  0-non 1-charg 2-wave 3-comb
   ISYM   =      0    0-nonsym 1-usesym 2-fastsym
   LCORR  =      T    Harris-Foulkes like correction to forces

   POTIM  = 0.5000    time-step for ionic-motion
   TEIN   =    0.0    initial temperature
   TEBEG  =    0.0;   TEEND  =   0.0 temperature during run
   SMASS  =  -3.00    Nose mass-parameter (am)
   estimated Nose-frequenzy (Omega)   =  0.10E-29 period in steps = 0.13E+47 mass=  -0.324E-26a.u.
   SCALEE = 1.0000    scale energy and forces
   NPACO  =    256;   APACO  = 10.0  distance and # of slots for P.C.
   PSTRESS=    0.0 pullay stress

  Mass of Ions in am
   POMASS =  58.69 92.91 55.85121.75
  Ionic Valenz
   ZVAL   =  10.00 13.00  8.00  5.00
  Atomic Wigner-Seitz radii
   RWIGS  =  -1.00 -1.00 -1.00 -1.00
  virtual crystal weights 
   VCA    =   1.00  1.00  1.00  1.00
   NELECT =     840.0000    total number of electrons
   NUPDOWN=      -1.0000    fix difference up-down

 DOS related values:
   EMIN   =  10.00;   EMAX   =-10.00  energy-range for DOS
   EFERMI =   0.00
   ISMEAR =     0;   SIGMA  =   0.05  broadening in eV -4-tet -1-fermi 0-gaus

 Electronic relaxation 2 (details)
   IALGO  =     38    algorithm
   LDIAG  =      T    sub-space diagonalisation (order eigenvalues)
   LSUBROT=      F    optimize rotation matrix (better conditioning)
   TURBO    =      0    0=normal 1=particle mesh
   IRESTART =      0    0=no restart 2=restart with 2 vectors
   NREBOOT  =      0    no. of reboots
   NMIN     =      0    reboot dimension
   EREF     =   0.00    reference energy to select bands
   IMIX   =      4    mixing-type and parameters
     AMIX     =   0.40;   BMIX     =  1.00
     AMIX_MAG =   1.60;   BMIX_MAG =  1.00
     AMIN     =   0.10
     WC   =   100.;   INIMIX=   1;  MIXPRE=   1;  MAXMIX= -45

 Intra band minimization:
   WEIMIN = 0.0000     energy-eigenvalue tresh-hold
   EBREAK =  0.50E-09  absolut break condition
   DEPER  =   0.30     relativ break condition  

   TIME   =   0.40     timestep for ELM

  volume/ion in A,a.u.               =      17.42       117.53
  Fermi-wavevector in a.u.,A,eV,Ry     =   1.296964  2.450906 22.886570  1.682115
  Thomas-Fermi vector in A             =   2.428387
 
 Write flags
   LWAVE        =      F    write WAVECAR
   LDOWNSAMPLE  =      F    k-point downsampling of WAVECAR
   LCHARG       =      F    write CHGCAR
   LVTOT        =      F    write LOCPOT, total local potential
   LVHAR        =      F    write LOCPOT, Hartree potential only
   LELF         =      F    write electronic localiz. function (ELF)
   LORBIT       =      0    0 simple, 1 ext, 2 COOP (PROOUT), +10 PAW based schemes


 Dipole corrections
   LMONO  =      F    monopole corrections only (constant potential shift)
   LDIPOL =      F    correct potential (dipole corrections)
   IDIPOL =      0    1-x, 2-y, 3-z, 4-all directions 
   EPSILON=  1.0000000 bulk dielectric constant

 Exchange correlation treatment:
   GGA     =    --    GGA type
   LEXCH   =     8    internal setting for exchange type
   LIBXC   =     F    Libxc                    
   VOSKOWN =     0    Vosko Wilk Nusair interpolation
   LHFCALC =     F    Hartree Fock is set to
   LHFONE  =     F    Hartree Fock one center treatment
   AEXX    =    0.0000 exact exchange contribution

 Linear response parameters
   LEPSILON=     F    determine dielectric tensor
   LRPA    =     F    only Hartree local field effects (RPA)
   LNABLA  =     F    use nabla operator in PAW spheres
   LVEL    =     F    velocity operator in full k-point grid
   CSHIFT  =0.1000    complex shift for real part using Kramers Kronig
   OMEGAMAX=  -1.0    maximum frequency
   DEG_THRESHOLD= 0.2000000E-02 threshold for treating states as degnerate
   RTIME   =   -0.100 relaxation time in fs
  (WPLASMAI=    0.000 imaginary part of plasma frequency in eV, 0.658/RTIME)
   DFIELD  = 0.0000000 0.0000000 0.0000000 field for delta impulse in time
 
  Optional k-point grid parameters
   LKPOINTS_OPT  =     F    use optional k-point grid
   KPOINTS_OPT_MODE=     1    mode for optional k-point grid
 
 Orbital magnetization related:
   ORBITALMAG=     F  switch on orbital magnetization
   LCHIMAG   =     F  perturbation theory with respect to B field
   DQ        =  0.001000  dq finite difference perturbation B field
   LLRAUG    =     F  two centre corrections for induced B field



--------------------------------------------------------------------------------------------------------


 Static calculation
 charge density and potential will be updated during run
 non-spin polarized calculation
 Variant of blocked Davidson
 Davidson routine will perform the subspace rotation
 perform sub-space diagonalisation
    after iterative eigenvector-optimisation
 modified Broyden-mixing scheme, WC =      100.0
 initial mixing is a Kerker type mixing with AMIX =  0.4000 and BMIX =      1.0000
 Hartree-type preconditioning will be used
 using additional bands           84
 reciprocal scheme for non local part
 use partial core corrections
 calculate Harris-corrections to forces 
   (improved forces if not selfconsistent)
 use gradient corrections 
 use of overlap-Matrix (Vanderbilt PP)
 Gauss-broadening in eV      SIGMA  =   0.05


--------------------------------------------------------------------------------------------------------


  energy-cutoff  :      500.00
  volume of cell :     1689.35
      direct lattice vectors                 reciprocal lattice vectors
    11.909860967  0.000000000  0.000000000     0.083964036 -0.000000000 -0.000000000
     0.000000000 11.909860967  0.000000000     0.000000000  0.083964036 -0.000000000
     0.000000000  0.000000000 11.909860967     0.000000000  0.000000000  0.083964036

  length of vectors
    11.909860967 11.909860967 11.909860967     0.083964036  0.083964036  0.083964036


 
 k-points in units of 2pi/SCALE and weight: K-Spacing Value to Generate K-Mesh: 0.02
   0.01049550  0.01049550  0.01049550       0.031
  -0.01049550  0.01049550  0.01049550       0.031
  -0.01049550 -0.01049550  0.01049550       0.031
   0.01049550 -0.01049550  0.01049550       0.031
   0.03148651  0.01049550  0.01049550       0.031
   0.01049550  0.03148651  0.01049550       0.031
   0.01049550  0.01049550  0.03148651       0.031
  -0.01049550  0.03148651  0.01049550       0.031
  -0.03148651  0.01049550  0.01049550       0.031
  -0.01049550  0.01049550  0.03148651       0.031
  -0.03148651 -0.01049550  0.01049550       0.031
  -0.01049550 -0.03148651  0.01049550       0.031
  -0.01049550 -0.01049550  0.03148651       0.031
   0.01049550 -0.03148651  0.01049550       0.031
   0.03148651 -0.01049550  0.01049550       0.031
   0.01049550 -0.01049550  0.03148651       0.031
   0.03148651  0.03148651  0.01049550       0.031
   0.01049550  0.03148651  0.03148651       0.031
   0.03148651  0.01049550  0.03148651       0.031
  -0.03148651  0.03148651  0.01049550       0.031
  -0.03148651  0.01049550  0.03148651       0.031
  -0.01049550  0.03148651  0.03148651       0.031
  -0.03148651 -0.03148651  0.01049550       0.031
  -0.01049550 -0.03148651  0.03148651       0.031
  -0.03148651 -0.01049550  0.03148651       0.031
   0.03148651 -0.03148651  0.01049550       0.031
   0.03148651 -0.01049550  0.03148651       0.031
   0.01049550 -0.03148651  0.03148651       0.031
   0.03148651  0.03148651  0.03148651       0.031
  -0.03148651  0.03148651  0.03148651       0.031
  -0.03148651 -0.03148651  0.03148651       0.031
   0.03148651 -0.03148651  0.03148651       0.031
 
 k-points in reciprocal lattice and weights: K-Spacing Value to Generate K-Mesh: 0.02
   0.12500000  0.12500000  0.12500000       0.031
  -0.12500000  0.12500000  0.12500000       0.031
  -0.12500000 -0.12500000  0.12500000       0.031
   0.12500000 -0.12500000  0.12500000       0.031
   0.37500000  0.12500000  0.12500000       0.031
   0.12500000  0.37500000  0.12500000       0.031
   0.12500000  0.12500000  0.37500000       0.031
  -0.12500000  0.37500000  0.12500000       0.031
  -0.37500000  0.12500000  0.12500000       0.031
  -0.12500000  0.12500000  0.37500000       0.031
  -0.37500000 -0.12500000  0.12500000       0.031
  -0.12500000 -0.37500000  0.12500000       0.031
  -0.12500000 -0.12500000  0.37500000       0.031
   0.12500000 -0.37500000  0.12500000       0.031
   0.37500000 -0.12500000  0.12500000       0.031
   0.12500000 -0.12500000  0.37500000       0.031
   0.37500000  0.37500000  0.12500000       0.031
   0.12500000  0.37500000  0.37500000       0.031
   0.37500000  0.12500000  0.37500000       0.031
  -0.37500000  0.37500000  0.12500000       0.031
  -0.37500000  0.12500000  0.37500000       0.031
  -0.12500000  0.37500000  0.37500000       0.031
  -0.37500000 -0.37500000  0.12500000       0.031
  -0.12500000 -0.37500000  0.37500000       0.031
  -0.37500000 -0.12500000  0.37500000       0.031
   0.37500000 -0.37500000  0.12500000       0.031
   0.37500000 -0.12500000  0.37500000       0.031
   0.12500000 -0.37500000  0.37500000       0.031
   0.37500000  0.37500000  0.37500000       0.031
  -0.37500000  0.37500000  0.37500000       0.031
  -0.37500000 -0.37500000  0.37500000       0.031
   0.37500000 -0.37500000  0.37500000       0.031
 
 position of ions in fractional coordinates (direct lattice) 
   0.12500000  0.12500000  0.12500000
   0.99701555  0.99701555  0.99701555
   0.99987705  0.99987705  0.50027148
   0.99987705  0.50027148  0.99987705
   0.99972437  0.50028980  0.50028980
   0.50027148  0.99987705  0.99987705
   0.50028980  0.99972437  0.50028980
   0.50028980  0.50028980  0.99972437
   0.50001235  0.50001235  0.50001235
   0.99701555  0.25298445  0.25298445
   0.99987705  0.25012295  0.74972852
   0.99987705  0.74972852  0.25012295
   0.99972437  0.74971020  0.74971020
   0.50027148  0.25012295  0.25012295
   0.50028980  0.25027563  0.74971020
   0.50028980  0.74971020  0.25027563
   0.50001235  0.74998765  0.74998765
   0.25298445  0.99701555  0.25298445
   0.25012295  0.99987705  0.74972852
   0.25012295  0.50027148  0.25012295
   0.25027563  0.50028980  0.74971020
   0.74972852  0.99987705  0.25012295
   0.74971020  0.99972437  0.74971020
   0.74971020  0.50028980  0.25027563
   0.74998765  0.50001235  0.74998765
   0.25298445  0.25298445  0.99701555
   0.25012295  0.25012295  0.50027148
   0.25012295  0.74972852  0.99987705
   0.25027563  0.74971020  0.50028980
   0.74972852  0.25012295  0.99987705
   0.74971020  0.25027563  0.50028980
   0.74971020  0.74971020  0.99972437
   0.74998765  0.74998765  0.50001235
   0.12500000  0.12500000  0.37545641
   0.12500000  0.12500000  0.87454359
   0.12500000  0.62500000  0.37488607
   0.12500000  0.62500000  0.87511393
   0.62500000  0.12500000  0.37488607
   0.62500000  0.12500000  0.87511393
   0.62500000  0.62500000  0.37465157
   0.62500000  0.62500000  0.87534843
   0.12500000  0.37545641  0.12500000
   0.12500000  0.37488607  0.62500000
   0.12500000  0.87454359  0.12500000
   0.12500000  0.87511393  0.62500000
   0.62500000  0.37488607  0.12500000
   0.62500000  0.37465157  0.62500000
   0.62500000  0.87511393  0.12500000
   0.62500000  0.87534843  0.62500000
   0.37545641  0.12500000  0.12500000
   0.37488607  0.12500000  0.62500000
   0.37488607  0.62500000  0.12500000
   0.37465157  0.62500000  0.62500000
   0.87454359  0.12500000  0.12500000
   0.87511393  0.12500000  0.62500000
   0.87511393  0.62500000  0.12500000
   0.87534843  0.62500000  0.62500000
   0.37610505  0.37610505  0.37610505
   0.37620923  0.37620923  0.87379077
   0.37620923  0.87379077  0.37620923
   0.37610505  0.87389495  0.87389495
   0.87379077  0.37620923  0.37620923
   0.87389495  0.37610505  0.87389495
   0.87389495  0.87389495  0.37610505
   0.87379077  0.87379077  0.87379077
   0.25207316  0.99792684  0.99792684
   0.25010281  0.99989719  0.50055417
   0.25010281  0.50055417  0.99989719
   0.24985415  0.50007589  0.50007589
   0.74944583  0.99989719  0.99989719
   0.74992411  0.00014585  0.50007589
   0.74992411  0.50007589  0.00014585
   0.74962283  0.50037717  0.50037717
   0.25207316  0.25207316  0.25207316
   0.25010281  0.25010281  0.74944583
   0.25010281  0.74944583  0.25010281
   0.24985415  0.74992411  0.74992411
   0.74944583  0.25010281  0.25010281
   0.74992411  0.24985415  0.74992411
   0.74992411  0.74992411  0.24985415
   0.74962283  0.74962283  0.74962283
   0.99792684  0.99792684  0.25207316
   0.99989719  0.99989719  0.74944583
   0.99989719  0.50055417  0.25010281
   0.00014585  0.50007589  0.74992411
   0.50055417  0.99989719  0.25010281
   0.50007589  0.00014585  0.74992411
   0.50007589  0.50007589  0.24985415
   0.50037717  0.50037717  0.74962283
   0.99792684  0.25207316  0.99792684
   0.99989719  0.25010281  0.50055417
   0.99989719  0.74944583  0.99989719
   0.00014585  0.74992411  0.50007589
   0.50055417  0.25010281  0.99989719
   0.50007589  0.24985415  0.50007589
   0.50007589  0.74992411  0.00014585
   0.50037717  0.74962283  0.50037717
 
 position of ions in cartesian coordinates  (Angst):
   1.48873262  1.48873262  1.48873262
  11.87431664 11.87431664 11.87431664
  11.90839661 11.90839661  5.95816381
  11.90839661  5.95816381 11.90839661
  11.90657829  5.95838196  5.95838196
   5.95816381 11.90839661 11.90839661
   5.95838196 11.90657829  5.95838196
   5.95838196  5.95838196 11.90657829
   5.95507757  5.95507757  5.95507757
  11.87431664  3.01300957  3.01300957
  11.90839661  2.97892960  8.92916240
  11.90839661  8.92916240  2.97892960
  11.90657829  8.92894425  8.92894425
   5.95816381  2.97892960  2.97892960
   5.95838196  2.98074792  8.92894425
   5.95838196  8.92894425  2.98074792
   5.95507757  8.93224864  8.93224864
   3.01300957 11.87431664  3.01300957
   2.97892960 11.90839661  8.92916240
   2.97892960  5.95816381  2.97892960
   2.98074792  5.95838196  8.92894425
   8.92916240 11.90839661  2.97892960
   8.92894425 11.90657829  8.92894425
   8.92894425  5.95838196  2.98074792
   8.93224864  5.95507757  8.93224864
   3.01300957  3.01300957 11.87431664
   2.97892960  2.97892960  5.95816381
   2.97892960  8.92916240 11.90839661
   2.98074792  8.92894425  5.95838196
   8.92916240  2.97892960 11.90839661
   8.92894425  2.98074792  5.95838196
   8.92894425  8.92894425 11.90657829
   8.93224864  8.93224864  5.95507757
   1.48873262  1.48873262  4.47163367
   1.48873262  1.48873262 10.41569254
   1.48873262  7.44366310  4.46484102
   1.48873262  7.44366310 10.42248519
   7.44366310  1.48873262  4.46484102
   7.44366310  1.48873262 10.42248519
   7.44366310  7.44366310  4.46204816
   7.44366310  7.44366310 10.42527805
   1.48873262  4.47163367  1.48873262
   1.48873262  4.46484102  7.44366310
   1.48873262 10.41569254  1.48873262
   1.48873262 10.42248519  7.44366310
   7.44366310  4.46484102  1.48873262
   7.44366310  4.46204816  7.44366310
   7.44366310 10.42248519  1.48873262
   7.44366310 10.42527805  7.44366310
   4.47163367  1.48873262  1.48873262
   4.46484102  1.48873262  7.44366310
   4.46484102  7.44366310  1.48873262
   4.46204816  7.44366310  7.44366310
  10.41569254  1.48873262  1.48873262
  10.42248519  1.48873262  7.44366310
  10.42248519  7.44366310  1.48873262
  10.42527805  7.44366310  7.44366310
   4.47935881  4.47935881  4.47935881
   4.48059962  4.48059962 10.40672658
   4.48059962 10.40672658  4.48059962
   4.47935881 10.40796740 10.40796740
  10.40672658  4.48059962  4.48059962
  10.40796740  4.47935881 10.40796740
  10.40796740 10.40796740  4.47935881
  10.40672658 10.40672658 10.40672658
   3.00215630 11.88516991 11.88516991
   2.97868973 11.90863648  5.96153052
   2.97868973  5.96153052 11.90863648
   2.97572819  5.95583430  5.95583430
   8.92579569 11.90863648 11.90863648
   8.93149191  0.00173705  5.95583430
   8.93149191  5.95583430  0.00173705
   8.92790372  5.95942249  5.95942249
   3.00215630  3.00215630  3.00215630
   2.97868973  2.97868973  8.92579569
   2.97868973  8.92579569  2.97868973
   2.97572819  8.93149191  8.93149191
   8.92579569  2.97868973  2.97868973
   8.93149191  2.97572819  8.93149191
   8.93149191  8.93149191  2.97572819
   8.92790372  8.92790372  8.92790372
  11.88516991 11.88516991  3.00215630
  11.90863648 11.90863648  8.92579569
  11.90863648  5.96153052  2.97868973
   0.00173705  5.95583430  8.93149191
   5.96153052 11.90863648  2.97868973
   5.95583430  0.00173705  8.93149191
   5.95583430  5.95583430  2.97572819
   5.95942249  5.95942249  8.92790372
  11.88516991  3.00215630 11.88516991
  11.90863648  2.97868973  5.96153052
  11.90863648  8.92579569 11.90863648
   0.00173705  8.93149191  5.95583430
   5.96153052  2.97868973 11.90863648
   5.95583430  2.97572819  5.95583430
   5.95583430  8.93149191  0.00173705
   5.95942249  8.92790372  5.95942249
 


--------------------------------------------------------------------------------------------------------


 k-point   1 :   0.1250 0.1250 0.1250  plane waves:   42892
 k-point   2 :  -0.1250 0.1250 0.1250  plane waves:   42892
 k-point   3 :  -0.1250-0.1250 0.1250  plane waves:   42892
 k-point   4 :   0.1250-0.1250 0.1250  plane waves:   42892
 k-point   5 :   0.3750 0.1250 0.1250  plane waves:   42879
 k-point   6 :   0.1250 0.3750 0.1250  plane waves:   42879
 k-point   7 :   0.1250 0.1250 0.3750  plane waves:   42879
 k-point   8 :  -0.1250 0.3750 0.1250  plane waves:   42879
 k-point   9 :  -0.3750 0.1250 0.1250  plane waves:   42879
 k-point  10 :  -0.1250 0.1250 0.3750  plane waves:   42879
 k-point  11 :  -0.3750-0.1250 0.1250  plane waves:   42879
 k-point  12 :  -0.1250-0.3750 0.1250  plane waves:   42879
 k-point  13 :  -0.1250-0.1250 0.3750  plane waves:   42879
 k-point  14 :   0.1250-0.3750 0.1250  plane waves:   42879
 k-point  15 :   0.3750-0.1250 0.1250  plane waves:   42879
 k-point  16 :   0.1250-0.1250 0.3750  plane waves:   42879
 k-point  17 :   0.3750 0.3750 0.1250  plane waves:   42888
 k-point  18 :   0.1250 0.3750 0.3750  plane waves:   42888
 k-point  19 :   0.3750 0.1250 0.3750  plane waves:   42888
 k-point  20 :  -0.3750 0.3750 0.1250  plane waves:   42888
 k-point  21 :  -0.3750 0.1250 0.3750  plane waves:   42888
 k-point  22 :  -0.1250 0.3750 0.3750  plane waves:   42888
 k-point  23 :  -0.3750-0.3750 0.1250  plane waves:   42888
 k-point  24 :  -0.1250-0.3750 0.3750  plane waves:   42888
 k-point  25 :  -0.3750-0.1250 0.3750  plane waves:   42888
 k-point  26 :   0.3750-0.3750 0.1250  plane waves:   42888
 k-point  27 :   0.3750-0.1250 0.3750  plane waves:   42888
 k-point  28 :   0.1250-0.3750 0.3750  plane waves:   42888
 k-point  29 :   0.3750 0.3750 0.3750  plane waves:   42868
 k-point  30 :  -0.3750 0.3750 0.3750  plane waves:   42868
 k-point  31 :  -0.3750-0.3750 0.3750  plane waves:   42868
 k-point  32 :   0.3750-0.3750 0.3750  plane waves:   42868

 maximum and minimum number of plane-waves per node :      5429     5312

 maximum number of plane-waves:     42892
 maximum index in each direction: 
   IXMAX=   22   IYMAX=   22   IZMAX=   21
   IXMIN=  -22   IYMIN=  -22   IZMIN=  -22


 parallel 3D FFT for wavefunctions:
    minimum data exchange during FFTs selected (reduces bandwidth)
 parallel 3D FFT for charge:
    minimum data exchange during FFTs selected (reduces bandwidth)


 total amount of memory used by VASP MPI-rank0   336382. kBytes
=======================================================================

   base      :      30000. kBytes
   nonl-proj :     107913. kBytes
   fftplans  :       6154. kBytes
   grid      :      10964. kBytes
   one-center:        202. kBytes
   wavefun   :     181149. kBytes
 
     INWAV:  cpu time      0.0000: real time      0.0002
 Broyden mixing: mesh for mixing (old mesh)
   NGX = 43   NGY = 43   NGZ = 43
  (NGX  =180   NGY  =180   NGZ  =180)
  gives a total of  79507 points

 initial charge density was supplied:
 charge density of overlapping atoms calculated
 number of electron     842.0000000 magnetization 
 keeping initial charge density in first step


--------------------------------------------------------------------------------------------------------


 Maximum index for augmentation-charges          985 (set IRDMAX)


--------------------------------------------------------------------------------------------------------


 First call to EWALD:  gamma=   0.149
 Maximum number of real-space cells 3x 3x 3
 Maximum number of reciprocal cells 3x 3x 3

    FEWALD:  cpu time      0.0036: real time      0.0037


--------------------------------------- Iteration      1(   1)  ---------------------------------------


    POTLOK:  cpu time      0.0922: real time      0.1010
    SETDIJ:  cpu time      0.0139: real time      0.0161
     EDDAV:  cpu time    137.7833: real time    140.4072
       DOS:  cpu time      0.0066: real time      0.0074
    --------------------------------------------
      LOOP:  cpu time    137.8961: real time    140.5317

 eigenvalue-minimisations  : 32256
 total energy-change (2. order) : 0.1159818E+05  (-0.3450403E+05)
 number of electron     842.0000000 magnetization 
 augmentation part      842.0000000 magnetization 

 Free energy of the ion-electron system (eV)
  ---------------------------------------------------
  alpha Z        PSCENC =      3041.91328531
  Ewald energy   TEWEN  =    -61005.05170730
  -Hartree energ DENC   =    -17595.36670628
  -exchange      EXHF   =         0.00000000
  -V(xc)+E(xc)   XCENC  =       525.06193451
  PAW double counting   =     63437.22670376   -61413.74729216
  entropy T*S    EENTRO =        -0.02715395
  eigenvalues    EBANDS =      9948.16266580
  atomic energy  EATOM  =     74660.01064857
  Solvation  Ediel_sol  =         0.00000000
  ---------------------------------------------------
  free energy    TOTEN  =     11598.18237826 eV

  energy without entropy =    11598.20953221  energy(sigma->0) =    11598.19595523


--------------------------------------------------------------------------------------------------------




--------------------------------------- Iteration      1(   2)  ---------------------------------------


     EDDAV:  cpu time    139.1303: real time    141.6867
       DOS:  cpu time      0.0065: real time      0.0066
    --------------------------------------------
      LOOP:  cpu time    139.1368: real time    141.6933

 eigenvalue-minimisations  : 32448
 total energy-change (2. order) :-0.1067061E+05  (-0.1039567E+05)
 number of electron     842.0000000 magnetization 
 augmentation part      842.0000000 magnetization 

 Free energy of the ion-electron system (eV)
  ---------------------------------------------------
  alpha Z        PSCENC =      3041.91328531
  Ewald energy   TEWEN  =    -61005.05170730
  -Hartree energ DENC   =    -17595.36670628
  -exchange      EXHF   =         0.00000000
  -V(xc)+E(xc)   XCENC  =       525.06193451
  PAW double counting   =     63437.22670376   -61413.74729216
  entropy T*S    EENTRO =        -0.03405342
  eigenvalues    EBANDS =      -722.44398151
  atomic energy  EATOM  =     74660.01064857
  Solvation  Ediel_sol  =         0.00000000
  ---------------------------------------------------
  free energy    TOTEN  =       927.56883148 eV

  energy without entropy =      927.60288490  energy(sigma->0) =      927.58585819


--------------------------------------------------------------------------------------------------------




--------------------------------------- Iteration      1(   3)  ---------------------------------------


     EDDAV:  cpu time    157.1433: real time    159.8405
       DOS:  cpu time      0.0063: real time      0.0064
    --------------------------------------------
      LOOP:  cpu time    157.1497: real time    159.8469

 eigenvalue-minimisations  : 38024
 total energy-change (2. order) :-0.1478262E+04  (-0.1395191E+04)
 number of electron     842.0000000 magnetization 
 augmentation part      842.0000000 magnetization 

 Free energy of the ion-electron system (eV)
  ---------------------------------------------------
  alpha Z        PSCENC =      3041.91328531
  Ewald energy   TEWEN  =    -61005.05170730
  -Hartree energ DENC   =    -17595.36670628
  -exchange      EXHF   =         0.00000000
  -V(xc)+E(xc)   XCENC  =       525.06193451
  PAW double counting   =     63437.22670376   -61413.74729216
  entropy T*S    EENTRO =        -0.03079720
  eigenvalues    EBANDS =     -2200.70934020
  atomic energy  EATOM  =     74660.01064857
  Solvation  Ediel_sol  =         0.00000000
  ---------------------------------------------------
  free energy    TOTEN  =      -550.69327099 eV

  energy without entropy =     -550.66247379  energy(sigma->0) =     -550.67787239


--------------------------------------------------------------------------------------------------------




--------------------------------------- Iteration      1(   4)  ---------------------------------------


     EDDAV:  cpu time    209.0114: real time    212.5492
       DOS:  cpu time      0.0066: real time      0.0067
    --------------------------------------------
      LOOP:  cpu time    209.0180: real time    212.5559

 eigenvalue-minimisations  : 53824
 total energy-change (2. order) :-0.2500540E+03  (-0.2443422E+03)
 number of electron     842.0000000 magnetization 
 augmentation part      842.0000000 magnetization 

 Free energy of the ion-electron system (eV)
  ---------------------------------------------------
  alpha Z        PSCENC =      3041.91328531
  Ewald energy   TEWEN  =    -61005.05170730
  -Hartree energ DENC   =    -17595.36670628
  -exchange      EXHF   =         0.00000000
  -V(xc)+E(xc)   XCENC  =       525.06193451
  PAW double counting   =     63437.22670376   -61413.74729216
  entropy T*S    EENTRO =        -0.05341520
  eigenvalues    EBANDS =     -2450.74067516
  atomic energy  EATOM  =     74660.01064857
  Solvation  Ediel_sol  =         0.00000000
  ---------------------------------------------------
  free energy    TOTEN  =      -800.74722395 eV

  energy without entropy =     -800.69380875  energy(sigma->0) =     -800.72051635


--------------------------------------------------------------------------------------------------------




--------------------------------------- Iteration      1(   5)  ---------------------------------------


     EDDAV:  cpu time    220.7792: real time    224.5955
       DOS:  cpu time      0.0067: real time      0.0067
    CHARGE:  cpu time      3.1528: real time      3.2065
    MIXING:  cpu time      0.0023: real time      0.0035
    --------------------------------------------
      LOOP:  cpu time    223.9410: real time    227.8122

 eigenvalue-minimisations  : 57416
 total energy-change (2. order) :-0.2329877E+02  (-0.2312948E+02)
 number of electron     839.9999744 magnetization 
 augmentation part      147.8467189 magnetization 

 Broyden mixing:
  rms(total) = 0.65062E+01    rms(broyden)= 0.65058E+01
  rms(prec ) = 0.72208E+01
  weight for this iteration     100.00

 Free energy of the ion-electron system (eV)
  ---------------------------------------------------
  alpha Z        PSCENC =      3041.91328531
  Ewald energy   TEWEN  =    -61005.05170730
  -Hartree energ DENC   =    -17595.36670628
  -exchange      EXHF   =         0.00000000
  -V(xc)+E(xc)   XCENC  =       525.06193451
  PAW double counting   =     63437.22670376   -61413.74729216
  entropy T*S    EENTRO =        -0.05342780
  eigenvalues    EBANDS =     -2474.03943171
  atomic energy  EATOM  =     74660.01064857
  Solvation  Ediel_sol  =         0.00000000
  ---------------------------------------------------
  free energy    TOTEN  =      -824.04599310 eV

  energy without entropy =     -823.99256530  energy(sigma->0) =     -824.01927920


--------------------------------------------------------------------------------------------------------




--------------------------------------- Iteration      1(   6)  ---------------------------------------


    POTLOK:  cpu time      0.0684: real time      0.0689
[...]
   0.891E+01 -.891E+01 0.891E+01   -.890E+01 0.890E+01 -.890E+01   -.235E-01 0.235E-01 -.235E-01   -.154E-02 0.108E-02 -.637E-03
   -.126E+03 -.126E+03 0.126E+03   0.126E+03 0.126E+03 -.126E+03   0.483E+00 0.483E+00 -.483E+00   0.241E-02 -.965E-03 -.125E-02
   -.171E+02 -.171E+02 -.335E+02   0.172E+02 0.172E+02 0.337E+02   -.347E-01 -.347E-01 -.109E+00   0.127E-02 0.862E-03 -.171E-02
   -.171E+02 0.335E+02 0.171E+02   0.172E+02 -.337E+02 -.172E+02   -.347E-01 0.109E+00 0.347E-01   -.291E-02 -.578E-03 0.293E-02
   -.364E+01 0.129E+02 -.129E+02   0.371E+01 -.130E+02 0.130E+02   -.580E-01 0.613E-01 -.613E-01   0.287E-03 0.163E-02 -.216E-02
   0.335E+02 -.171E+02 0.171E+02   -.337E+02 0.172E+02 -.172E+02   0.109E+00 -.347E-01 0.348E-01   -.252E-03 -.308E-02 -.103E-02
   0.129E+02 -.365E+01 -.129E+02   -.130E+02 0.371E+01 0.130E+02   0.613E-01 -.581E-01 -.613E-01   -.786E-03 0.236E-02 -.286E-02
   0.129E+02 0.129E+02 0.364E+01   -.130E+02 -.130E+02 -.371E+01   0.613E-01 0.613E-01 0.581E-01   -.667E-03 -.144E-02 0.120E-03
   0.891E+01 0.891E+01 -.891E+01   -.890E+01 -.890E+01 0.890E+01   -.235E-01 -.235E-01 0.234E-01   -.146E-02 0.171E-04 0.143E-02
   -.297E-03 0.316E-03 -.967E+02   0.128E-12 0.109E-12 0.976E+02   -.483E-06 0.741E-05 -.142E+01   0.269E-03 -.311E-03 0.159E-03
   -.430E-03 0.294E-03 0.967E+02   -.502E-13 -.560E-13 -.976E+02   0.159E-04 0.196E-04 0.142E+01   0.390E-03 -.309E-03 -.135E-03
   -.282E-03 -.395E-03 -.108E+02   0.551E-13 0.127E-12 0.110E+02   0.808E-06 -.266E-05 -.192E+00   0.280E-03 0.387E-03 -.415E-03
   -.159E-03 -.233E-03 0.108E+02   -.888E-14 0.235E-13 -.110E+02   0.676E-06 0.505E-05 0.192E+00   0.147E-03 0.208E-03 0.401E-03
   0.415E-03 0.147E-03 -.108E+02   -.613E-13 -.462E-13 0.110E+02   0.363E-05 -.112E-04 -.192E+00   -.405E-03 -.116E-03 -.794E-04
   0.408E-03 -.214E-04 0.108E+02   -.924E-13 0.604E-13 -.110E+02   0.114E-04 -.386E-05 0.192E+00   -.401E-03 0.216E-04 0.584E-04
   0.212E-03 -.110E-03 -.583E+01   -.355E-13 -.213E-13 0.589E+01   0.524E-05 0.161E-07 -.952E-01   -.216E-03 0.101E-03 0.421E-03
   0.216E-03 0.779E-05 0.583E+01   0.497E-13 0.435E-13 -.589E+01   -.147E-05 0.899E-05 0.952E-01   -.216E-03 -.159E-04 -.389E-03
   -.296E-03 -.967E+02 -.279E-03   0.751E-13 0.976E+02 0.258E-13   0.136E-04 -.142E+01 -.611E-05   0.253E-03 0.491E-03 0.281E-03
   -.232E-03 -.108E+02 0.184E-03   0.320E-13 0.110E+02 0.937E-13   0.629E-05 -.192E+00 -.207E-05   0.218E-03 0.477E-03 -.166E-03
   -.277E-03 0.967E+02 -.288E-03   0.675E-13 -.976E+02 -.142E-13   0.729E-05 0.142E+01 0.497E-05   0.255E-03 -.322E-03 0.265E-03
   -.360E-03 0.108E+02 0.356E-03   -.888E-13 -.110E+02 -.258E-13   -.930E-05 0.192E+00 0.371E-05   0.357E-03 -.484E-03 -.357E-03
   0.302E-03 -.108E+02 -.251E-03   -.151E-13 0.110E+02 0.702E-13   0.850E-05 -.192E+00 -.490E-05   -.300E-03 -.103E-03 0.250E-03
   0.277E-03 -.583E+01 0.274E-03   -.266E-14 0.589E+01 0.595E-13   -.733E-06 -.952E-01 0.707E-07   -.270E-03 0.397E-03 -.277E-03
   0.351E-03 0.108E+02 -.409E-03   -.631E-13 -.110E+02 -.160E-13   0.109E-04 0.192E+00 -.245E-05   -.358E-03 0.832E-04 0.397E-03
   0.324E-03 0.583E+01 0.400E-03   -.426E-13 -.589E+01 -.142E-13   0.352E-05 0.952E-01 0.346E-05   -.317E-03 -.368E-03 -.382E-03
   -.967E+02 0.332E-03 -.223E-03   0.976E+02 -.213E-13 0.178E-13   -.142E+01 0.189E-04 -.842E-05   0.165E-03 -.346E-03 0.220E-03
   -.108E+02 0.961E-04 0.269E-03   0.110E+02 -.551E-13 0.560E-13   -.192E+00 -.140E-05 -.730E-05   0.562E-03 -.836E-04 -.248E-03
   -.108E+02 -.381E-03 -.388E-03   0.110E+02 0.790E-13 0.675E-13   -.192E+00 -.529E-05 -.886E-05   -.334E-03 0.375E-03 0.394E-03
   -.583E+01 -.299E-04 0.342E-03   0.589E+01 -.711E-14 -.497E-13   -.952E-01 0.441E-05 0.450E-05   0.453E-03 0.203E-04 -.338E-03
   0.967E+02 0.361E-03 -.337E-03   -.976E+02 0.582E-13 -.644E-13   0.142E+01 0.102E-04 0.669E-05   -.199E-04 -.353E-03 0.318E-03
   0.108E+02 -.467E-04 0.271E-03   -.110E+02 -.409E-13 -.977E-14   0.192E+00 -.119E-04 0.131E-05   -.553E-03 0.600E-04 -.260E-03
   0.108E+02 -.318E-03 -.277E-03   -.110E+02 0.222E-14 -.178E-14   0.192E+00 -.132E-05 -.787E-06   0.354E-03 0.303E-03 0.263E-03
   0.583E+01 -.240E-05 0.337E-03   -.589E+01 -.187E-13 -.231E-13   0.952E-01 0.123E-04 0.524E-05   -.477E-03 -.161E-04 -.339E-03
   -.138E+02 -.138E+02 -.138E+02   0.140E+02 0.140E+02 0.140E+02   -.334E+00 -.334E+00 -.334E+00   0.532E-03 0.435E-03 0.174E-03
   -.186E+02 -.186E+02 0.186E+02   0.188E+02 0.188E+02 -.188E+02   -.518E+00 -.518E+00 0.518E+00   0.409E-03 0.268E-03 -.157E-03
   -.186E+02 0.186E+02 -.186E+02   0.188E+02 -.188E+02 0.188E+02   -.518E+00 0.518E+00 -.518E+00   0.204E-03 -.369E-03 -.161E-03
   -.138E+02 0.138E+02 0.138E+02   0.140E+02 -.140E+02 -.140E+02   -.334E+00 0.334E+00 0.334E+00   0.229E-03 -.283E-03 0.103E-03
   0.186E+02 -.186E+02 -.186E+02   -.188E+02 0.188E+02 0.188E+02   0.518E+00 -.518E+00 -.518E+00   -.413E-03 0.454E-03 0.152E-03
   0.138E+02 -.138E+02 0.138E+02   -.140E+02 0.140E+02 -.140E+02   0.334E+00 -.334E+00 0.334E+00   -.443E-03 0.542E-03 -.239E-03
   0.138E+02 0.138E+02 -.138E+02   -.140E+02 -.140E+02 0.140E+02   0.334E+00 0.334E+00 -.334E+00   -.275E-03 -.544E-03 -.970E-04
   0.186E+02 0.186E+02 0.186E+02   -.188E+02 -.188E+02 -.188E+02   0.518E+00 0.518E+00 0.518E+00   -.117E-03 -.436E-03 0.206E-03
   -.472E+02 0.472E+02 0.472E+02   0.484E+02 -.484E+02 -.484E+02   -.894E+00 0.894E+00 0.894E+00   -.919E-03 0.269E-03 0.131E-02
   -.592E+01 0.592E+01 -.142E+02   0.596E+01 -.596E+01 0.143E+02   -.195E-01 0.195E-01 -.922E-01   0.225E-03 -.819E-03 -.683E-03
   -.592E+01 -.142E+02 0.592E+01   0.596E+01 0.143E+02 -.596E+01   -.195E-01 -.922E-01 0.195E-01   0.480E-03 0.402E-03 -.541E-03
   -.185E+01 -.445E+01 -.445E+01   0.186E+01 0.448E+01 0.448E+01   -.154E-01 -.253E-01 -.253E-01   0.279E-03 -.414E-04 -.864E-03
   0.142E+02 0.592E+01 0.592E+01   -.143E+02 -.596E+01 -.596E+01   0.922E-01 0.195E-01 0.195E-01   -.367E-03 0.835E-03 0.206E-03
   0.445E+01 0.185E+01 -.445E+01   -.448E+01 -.186E+01 0.448E+01   0.253E-01 0.154E-01 -.253E-01   -.126E-02 -.308E-03 -.206E-03
   0.445E+01 -.445E+01 0.185E+01   -.448E+01 0.448E+01 -.186E+01   0.253E-01 -.253E-01 0.154E-01   0.146E-03 0.926E-03 -.446E-03
   0.344E+01 -.344E+01 -.344E+01   -.345E+01 0.345E+01 0.345E+01   -.239E-01 0.239E-01 0.239E-01   0.429E-03 -.578E-03 -.384E-03
   -.472E+02 -.472E+02 -.472E+02   0.484E+02 0.484E+02 0.484E+02   -.894E+00 -.894E+00 -.894E+00   0.908E-03 -.298E-03 0.174E-03
   -.592E+01 -.592E+01 0.142E+02   0.596E+01 0.596E+01 -.143E+02   -.195E-01 -.195E-01 0.922E-01   0.289E-03 0.160E-03 0.100E-02
   -.592E+01 0.142E+02 -.592E+01   0.596E+01 -.143E+02 0.596E+01   -.195E-01 0.922E-01 -.195E-01   -.217E-03 0.729E-03 -.238E-03
   -.185E+01 0.445E+01 0.445E+01   0.186E+01 -.448E+01 -.448E+01   -.154E-01 0.253E-01 0.253E-01   -.890E-03 -.344E-03 -.121E-03
   0.142E+02 -.592E+01 -.592E+01   -.143E+02 0.596E+01 0.596E+01   0.922E-01 -.195E-01 -.195E-01   0.817E-03 -.415E-03 0.104E-02
   0.445E+01 -.185E+01 0.445E+01   -.448E+01 0.186E+01 -.448E+01   0.253E-01 -.154E-01 0.253E-01   -.113E-02 0.142E-04 0.372E-03
   0.445E+01 0.445E+01 -.185E+01   -.448E+01 -.448E+01 0.186E+01   0.253E-01 0.253E-01 -.154E-01   0.460E-04 -.204E-03 -.150E-03
   0.345E+01 0.344E+01 0.344E+01   -.345E+01 -.345E+01 -.345E+01   -.238E-01 -.238E-01 -.238E-01   -.812E-03 -.286E-03 -.454E-03
   0.472E+02 0.472E+02 -.472E+02   -.484E+02 -.484E+02 0.484E+02   0.894E+00 0.894E+00 -.894E+00   0.656E-03 -.317E-03 -.112E-02
   0.592E+01 0.592E+01 0.142E+02   -.596E+01 -.596E+01 -.143E+02   0.195E-01 0.195E-01 0.922E-01   0.100E-02 -.105E-03 0.364E-03
   0.592E+01 -.142E+02 -.592E+01   -.596E+01 0.143E+02 0.596E+01   0.195E-01 -.922E-01 -.195E-01   -.609E-03 0.137E-03 0.789E-03
   0.185E+01 -.445E+01 0.445E+01   -.186E+01 0.448E+01 -.448E+01   0.154E-01 -.254E-01 0.253E-01   0.139E-03 0.674E-03 0.176E-03
   -.142E+02 0.592E+01 -.592E+01   0.143E+02 -.596E+01 0.596E+01   -.922E-01 0.195E-01 -.195E-01   -.580E-03 0.146E-03 0.397E-03
   -.445E+01 0.185E+01 0.445E+01   0.448E+01 -.186E+01 -.448E+01   -.253E-01 0.154E-01 0.253E-01   0.123E-02 0.303E-03 -.252E-03
   -.444E+01 -.445E+01 -.185E+01   0.448E+01 0.448E+01 0.186E+01   -.253E-01 -.253E-01 -.154E-01   -.100E-02 0.274E-03 0.693E-03
   -.344E+01 -.344E+01 0.344E+01   0.345E+01 0.345E+01 -.345E+01   0.238E-01 0.238E-01 -.239E-01   0.152E-03 -.429E-03 0.578E-03
   0.472E+02 -.472E+02 0.472E+02   -.484E+02 0.484E+02 -.484E+02   0.894E+00 -.894E+00 0.894E+00   -.135E-04 -.874E-03 0.767E-04
   0.592E+01 -.592E+01 -.142E+02   -.596E+01 0.596E+01 0.143E+02   0.195E-01 -.195E-01 -.922E-01   -.377E-03 0.769E-03 -.120E-02
   0.592E+01 0.142E+02 0.592E+01   -.596E+01 -.143E+02 -.596E+01   0.194E-01 0.922E-01 0.195E-01   0.111E-02 0.479E-04 0.893E-03
   0.185E+01 0.445E+01 -.445E+01   -.186E+01 -.448E+01 0.448E+01   0.154E-01 0.253E-01 -.253E-01   0.426E-03 -.284E-03 0.165E-04
   -.142E+02 -.592E+01 0.592E+01   0.143E+02 0.596E+01 -.596E+01   -.922E-01 -.195E-01 0.195E-01   -.760E-03 -.811E-03 -.804E-03
   -.445E+01 -.185E+01 -.445E+01   0.448E+01 0.186E+01 0.448E+01   -.253E-01 -.154E-01 -.253E-01   0.265E-03 0.343E-03 -.644E-03
   -.445E+01 0.445E+01 0.185E+01   0.448E+01 -.448E+01 -.186E+01   -.253E-01 0.253E-01 0.154E-01   0.289E-03 -.742E-03 0.382E-03
   -.344E+01 0.344E+01 -.344E+01   0.345E+01 -.345E+01 0.345E+01   0.238E-01 -.239E-01 0.238E-01   0.280E-04 0.925E-03 -.340E-03
 -----------------------------------------------------------------------------------------------
   -.178E-03 0.134E-02 0.286E-03   -.369E-12 -.955E-13 0.280E-12   -.630E-04 0.330E-03 -.411E-04   0.225E-03 -.167E-02 -.252E-03
 
 
 POSITION                                       TOTAL-FORCE (eV/Angst)
 -----------------------------------------------------------------------------------
      1.48873      1.48873      1.48873        -0.000007     -0.000039     -0.000001
     11.87432     11.87432     11.87432        -0.304645     -0.304674     -0.304692
     11.90840     11.90840      5.95816        -0.037875     -0.037834      0.078412
     11.90840      5.95816     11.90840        -0.037844      0.078477     -0.037788
     11.90658      5.95838      5.95838        -0.005155      0.042490      0.042360
      5.95816     11.90840     11.90840         0.078490     -0.037944     -0.037813
      5.95838     11.90658      5.95838         0.042382     -0.005138      0.042384
      5.95838      5.95838     11.90658         0.042391      0.042416     -0.005098
      5.95508      5.95508      5.95508         0.015806      0.015913      0.015776
     11.87432      3.01301      3.01301        -0.304552      0.304605      0.304654
     11.90840      2.97893      8.92916        -0.037870      0.037811     -0.078458
     11.90840      8.92916      2.97893        -0.037836     -0.078516      0.037871
     11.90658      8.92894      8.92894        -0.005237     -0.042394     -0.042357
      5.95816      2.97893      2.97893         0.078565      0.037869      0.037834
      5.95838      2.98075      8.92894         0.042342      0.005150     -0.042437
      5.95838      8.92894      2.98075         0.042402     -0.042435      0.005155
      5.95508      8.93225      8.93225         0.015744     -0.015832     -0.015792
      3.01301     11.87432      3.01301         0.304602     -0.304642      0.304704
      2.97893     11.90840      8.92916         0.037936     -0.037839     -0.078462
      2.97893      5.95816      2.97893         0.037858      0.078563      0.037825
      2.98075      5.95838      8.92894         0.005247      0.042456     -0.042418
      8.92916     11.90840      2.97893        -0.078535     -0.037890      0.037846
      8.92894     11.90658      8.92894        -0.042346     -0.005212     -0.042371
      8.92894      5.95838      2.98075        -0.042478      0.042423      0.005150
      8.93225      5.95508      8.93225        -0.015819      0.015848     -0.015801
      3.01301      3.01301     11.87432         0.304602      0.304655     -0.304646
      2.97893      2.97893      5.95816         0.037891      0.037788      0.078464
      2.97893      8.92916     11.90840         0.037929     -0.078496     -0.037798
      2.98075      8.92894      5.95838         0.005225     -0.042493      0.042351
      8.92916      2.97893     11.90840        -0.078510      0.037886     -0.037773
      8.92894      2.98075      5.95838        -0.042433      0.005122      0.042373
      8.92894      8.92894     11.90658        -0.042394     -0.042341     -0.005156
      8.93225      8.93225      5.95508        -0.015835     -0.015850      0.015733
      1.48873      1.48873      4.47163        -0.000028      0.000012     -0.518254
      1.48873      1.48873     10.41569        -0.000024      0.000004      0.518249
      1.48873      7.44366      4.46484        -0.000001     -0.000011     -0.072973
      1.48873      7.44366     10.42249        -0.000011     -0.000020      0.072975
      7.44366      1.48873      4.46484         0.000014      0.000020     -0.072997
      7.44366      1.48873     10.42249         0.000018     -0.000004      0.072997
      7.44366      7.44366      4.46205         0.000001     -0.000008     -0.036573
      7.44366      7.44366     10.42528        -0.000001      0.000001      0.036571
      1.48873      4.47163      1.48873        -0.000029     -0.518300     -0.000004
      1.48873      4.46484      7.44366        -0.000007     -0.072987      0.000017
      1.48873     10.41569      1.48873        -0.000014      0.518366     -0.000017
      1.48873     10.42249      7.44366        -0.000013      0.073003      0.000002
      7.44366      4.46484      1.48873         0.000010     -0.072990     -0.000006
      7.44366      4.46205      7.44366         0.000007     -0.036570     -0.000002
      7.44366     10.42249      1.48873         0.000004      0.072999     -0.000014
      7.44366     10.42528      7.44366         0.000011      0.036574      0.000021
      4.47163      1.48873      1.48873        -0.518299      0.000004     -0.000011
      4.46484      1.48873      7.44366        -0.073004      0.000011      0.000014
      4.46484      7.44366      1.48873        -0.072979     -0.000011     -0.000003
      4.46205      7.44366      7.44366        -0.036573     -0.000005      0.000008
     10.41569      1.48873      1.48873         0.518310      0.000018     -0.000012
     10.42249      1.48873      7.44366         0.072991      0.000001      0.000012
     10.42249      7.44366      1.48873         0.072976     -0.000016     -0.000015
     10.42528      7.44366      7.44366         0.036576     -0.000006      0.000004
      4.47936      4.47936      4.47936        -0.114542     -0.114556     -0.114542
      4.48060      4.48060     10.40673        -0.233742     -0.233717      0.233736
      4.48060     10.40673      4.48060        -0.233751      0.233736     -0.233751
      4.47936     10.40797     10.40797        -0.114525      0.114568      0.114530
     10.40673      4.48060      4.48060         0.233742     -0.233739     -0.233749
     10.40797      4.47936     10.40797         0.114548     -0.114561      0.114543
     10.40797     10.40797      4.47936         0.114543      0.114579     -0.114524
     10.40673     10.40673     10.40673         0.233721      0.233741      0.233730
      3.00216     11.88517     11.88517         0.271429     -0.271427     -0.271442
      2.97869     11.90864      5.96153         0.026695     -0.026666      0.080289
      2.97869      5.96153     11.90864         0.026690      0.080286     -0.026660
      2.97573      5.95583      5.95583        -0.007285      0.011400      0.011389
      8.92580     11.90864     11.90864        -0.080274     -0.026723     -0.026676
      8.93149      0.00174      5.95583        -0.011341      0.007287      0.011361
      8.93149      5.95583      0.00174        -0.011380      0.011335      0.007304
      8.92790      5.95942      5.95942        -0.031829      0.031828      0.031817
      3.00216      3.00216      3.00216         0.271355      0.271392      0.271406
      2.97869      2.97869      8.92580         0.026706      0.026685     -0.080320
      2.97869      8.92580      2.97869         0.026704     -0.080323      0.026691
      2.97573      8.93149      8.93149        -0.007229     -0.011369     -0.011365
      8.92580      2.97869      2.97869        -0.080330      0.026697      0.026652
      8.93149      2.97573      8.93149        -0.011343     -0.007272     -0.011387
      8.93149      8.93149      2.97573        -0.011379     -0.011360     -0.007271
      8.92790      8.92790      8.92790        -0.031778     -0.031791     -0.031787
     11.88517     11.88517      3.00216        -0.271400     -0.271389      0.271446
     11.90864     11.90864      8.92580        -0.026728     -0.026691     -0.080276
     11.90864      5.96153      2.97869        -0.026664      0.080290      0.026666
      0.00174      5.95583      8.93149         0.007272      0.011358     -0.011380
      5.96153     11.90864      2.97869         0.080311     -0.026695      0.026661
      5.95583      0.00174      8.93149         0.011321      0.007261     -0.011359
      5.95583      5.95583      2.97573         0.011403      0.011369     -0.007306
      5.95942      5.95942      8.92790         0.031793      0.031817     -0.031828
     11.88517      3.00216     11.88517        -0.271390      0.271417     -0.271395
     11.90864      2.97869      5.96153        -0.026685      0.026663      0.080300
     11.90864      8.92580     11.90864        -0.026722     -0.080280     -0.026696
      0.00174      8.93149      5.95583         0.007268     -0.011381      0.011349
      5.96153      2.97869     11.90864         0.080317      0.026715     -0.026643
      5.95583      2.97573      5.95583         0.011374     -0.007294      0.011386
      5.95583      8.93149      0.00174         0.011349     -0.011338      0.007281
      5.95942      8.92790      5.95942         0.031796     -0.031842      0.031803
 -----------------------------------------------------------------------------------
    total drift:                               -0.000016     -0.000004     -0.000008


--------------------------------------------------------------------------------------------------------



  FREE ENERGIE OF THE ION-ELECTRON SYSTEM (eV)
  ---------------------------------------------------
  free  energy   TOTEN  =      -780.68982337 eV

  energy  without entropy=     -780.64530890  energy(sigma->0) =     -780.66756613
 


--------------------------------------------------------------------------------------------------------


    POTLOK:  cpu time      0.0788: real time      0.0817


--------------------------------------------------------------------------------------------------------


     LOOP+:  cpu time   6548.2649: real time   6661.8002
    4ORBIT:  cpu time      0.0000: real time      0.0000

 total amount of memory used by VASP MPI-rank0   336382. kBytes
=======================================================================

   base      :      30000. kBytes
   nonl-proj :     107913. kBytes
   fftplans  :       6154. kBytes
   grid      :      10964. kBytes
   one-center:        202. kBytes
   wavefun   :     181149. kBytes
 
  
  
 General timing and accounting informations for this job:
 ========================================================
  
                  Total CPU time used (sec):     6620.151
                            User time (sec):     6528.800
                          System time (sec):       91.351
                         Elapsed time (sec):     6736.054
  
                   Maximum memory used (kb):      555604.
                   Average memory used (kb):          N/A
  
                          Minor page faults:        96162
                          Major page faults:         8371
                 Voluntary context switches:          709
