 vasp.6.3.0 20Jan22 (build Oct 14 2024 11:24:38) complex                        
  
 executed on             LinuxIFC date 2025.05.01  23:15:58
 running on   64 total cores
 distrk:  each k-point on   64 cores,    1 groups
 distr:  one band on NCORE=   8 cores,    8 groups


--------------------------------------------------------------------------------------------------------


 INCAR:
   ISTART = 0            (Read existing wavefunction
   ISPIN = 1            (Non-Spin polarised DFT)
   LREAL = .FALSE.       (Projection operators: automatic)
   ENCUT = 500          (Cut-off energy for plane wave basis set, in eV)
   PREC = Accurate     (Precision level)
   LWAVE = .FALSE.       (Write WAVECAR or not)
   LCHARG = .FALSE.       (Write CHGCAR or not)
   NSW = 0
   IBRION = -1
   ISMEAR = 0            (gaussian smearing method)
   SIGMA = 0.05         (please check the width of the smearing)
   NELM = 60           (Max electronic SCF steps)
   EDIFF = 1E-06        (SCF energy convergence
   NCORE = 8             (square root of total cores)

 POTCAR:    PAW_PBE Fe 06Sep2000                  
 POTCAR:    PAW_PBE Fe 06Sep2000                  
   VRHFIN =Fe:  d7 s1                                                                               
   LEXCH  = PE                                                                                      
   EATOM  =   594.3153 eV,   43.6809 Ry                                                             
                                                                                                    
   TITEL  = PAW_PBE Fe 06Sep2000                                                                    
   LULTRA =        F    use ultrasoft PP ?                                                          
   IUNSCR =        1    unscreen: 0-lin 1-nonlin 2-no                                               
   RPACOR =    2.000    partial core radius                                                         
   POMASS =   55.847; ZVAL   =    8.000    mass and valenz                                          
   RCORE  =    2.300    outmost cutoff radius                                                       
   RWIGS  =    2.460; RWIGS  =    1.302    wigner-seitz radius (au A)                               
   ENMAX  =  267.882; ENMIN  =  200.911 eV                                                          
   RCLOC  =    1.701    cutoff for local pot                                                        
   LCOR   =        T    correct aug charges                                                         
   LPAW   =        T    paw PP                                                                      
   EAUG   =  511.368                                                                                
   DEXC   =    0.000                                                                                
   RMAX   =    2.356    core radius for proj-oper                                                   
   RAUG   =    1.300    factor for augmentation sphere                                              
   RDEP   =    2.442    radius for radial grids                                                     
   RDEPT  =    1.890    core radius for aug-charge                                                  
                                                                                                    
   Atomic configuration                                                                             
    9 entries                                                                                       
     n  l   j            E        occ.                                                              
     1  0  0.50     -6993.8440   2.0000                                                             
     2  0  0.50      -814.6047   2.0000                                                             
     2  1  1.50      -693.3689   6.0000                                                             
     3  0  0.50       -89.4732   2.0000                                                             
     3  1  1.50       -55.6373   6.0000                                                             
     3  2  2.50        -3.8151   7.0000                                                             
     4  0  0.50        -4.2551   1.0000                                                             
     4  1  1.50        -3.4015   0.0000                                                             
     4  3  2.50        -1.3606   0.0000                                                             
   Description                                                                                      
     l       E           TYP  RCUT    TYP  RCUT                                                     
     2     -3.8151135     23  2.300                                                                 
     2     -5.1756961     23  2.300                                                                 
     0     -4.2550963     23  2.300                                                                 
     0      7.2035603     23  2.300                                                                 
     1     -2.7211652     23  2.300                                                                 
     1     18.4316424     23  2.300                                                                 
  local pseudopotential read in
  partial core-charges read in
  partial kinetic energy density read in
  atomic valenz-charges read in
  non local Contribution for L=           2  read in
    real space projection operators read in
  non local Contribution for L=           2  read in
    real space projection operators read in
  non local Contribution for L=           0  read in
    real space projection operators read in
  non local Contribution for L=           0  read in
    real space projection operators read in
  non local Contribution for L=           1  read in
    real space projection operators read in
  non local Contribution for L=           1  read in
    real space projection operators read in
    PAW grid and wavefunctions read in
 
   number of l-projection  operators is LMAX  =           6
   number of lm-projection operators is LMMAX =          18
 
  PAW_PBE Fe 06Sep2000                  :
 energy of atom  1       EATOM= -594.3153
 kinetic energy error for atom=    0.0026 (will be added to EATOM!!)
 
 
 POSCAR: Fe bcc
  positions in direct lattice
  No initial velocities read in
 exchange correlation table for  LEXCH =        8
   RHO(1)=    0.500       N(1)  =     2000
   RHO(2)=  100.500       N(2)  =     4000
 


--------------------------------------------------------------------------------------------------------


 ion  position               nearest neighbor table
   1  0.000  0.000  0.000-
 
  LATTYP: Found a body centered cubic cell.
 ALAT       =     2.8182000000
  
  Lattice vectors:
  
 A1 = (  -1.4091000000,   1.4091000000,   1.4091000000)
 A2 = (   1.4091000000,  -1.4091000000,   1.4091000000)
 A3 = (   1.4091000000,   1.4091000000,  -1.4091000000)


Analysis of symmetry for initial positions (statically):
=====================================================================
 Subroutine PRICEL returns:
 Original cell was already a primitive cell.
 

 Routine SETGRP: Setting up the symmetry group for a 
 body centered cubic supercell.


 Subroutine GETGRP returns: Found 48 space group operations
 (whereof 48 operations were pure point group operations)
 out of a pool of 48 trial point group operations.


The static configuration has the point symmetry O_h .


Analysis of symmetry for dynamics (positions and initial velocities):
=====================================================================
 Subroutine PRICEL returns:
 Original cell was already a primitive cell.
 

 Routine SETGRP: Setting up the symmetry group for a 
 body centered cubic supercell.


 Subroutine GETGRP returns: Found 48 space group operations
 (whereof 48 operations were pure point group operations)
 out of a pool of 48 trial point group operations.


The dynamic configuration has the point symmetry O_h .


 Subroutine INISYM returns: Found 48 space group operations
 (whereof 48 operations are pure point group operations),
 and found     1 'primitive' translations


----------------------------------------------------------------------------------------

                                     Primitive cell                                     

  volume of cell :      11.1914

  direct lattice vectors                    reciprocal lattice vectors
    -1.409100000  1.409100000  1.409100000     0.000000000  0.354836420  0.354836420
     1.409100000 -1.409100000  1.409100000     0.354836420  0.000000000  0.354836420
     1.409100000  1.409100000 -1.409100000     0.354836420  0.354836420  0.000000000

  length of vectors
     2.440632793  2.440632793  2.440632793     0.501814478  0.501814478  0.501814478

  position of ions in fractional coordinates (direct lattice)
     0.000000000  0.000000000  0.000000000

  ion indices of the primitive-cell ions
   primitive index   ion index
                 1           1

----------------------------------------------------------------------------------------

 
 
 KPOINTS: K-Spacing Value to Generate K-Mesh: 0.02

Automatic generation of k-mesh.
 Grid dimensions read from file:
 generate k-points for:   25   25   25

 Generating k-lattice:

  Cartesian coordinates                     Fractional coordinates (reciprocal lattice)
     0.000000000  0.014193457  0.014193457     0.040000000  0.000000000 -0.000000000
     0.014193457  0.000000000  0.014193457     0.000000000  0.040000000 -0.000000000
     0.014193457  0.014193457  0.000000000    -0.000000000  0.000000000  0.040000000

  Length of vectors
     0.020072579  0.020072579  0.020072579

  Shift w.r.t. Gamma in fractional coordinates (k-lattice)
     0.000000000  0.000000000  0.000000000

 
 Subroutine IBZKPT returns following result:
 ===========================================
 
 Found    455 irreducible k-points:
 
 Following reciprocal coordinates:
            Coordinates               Weight
  0.000000  0.000000  0.000000      1.000000
  0.040000 -0.000000  0.000000     12.000000
  0.080000 -0.000000  0.000000     12.000000
  0.120000  0.000000  0.000000     12.000000
  0.160000 -0.000000  0.000000     12.000000
  0.200000  0.000000 -0.000000     12.000000
  0.240000 -0.000000  0.000000     12.000000
  0.280000 -0.000000 -0.000000     12.000000
  0.320000  0.000000  0.000000     12.000000
  0.360000 -0.000000  0.000000     12.000000
  0.400000  0.000000  0.000000     12.000000
  0.440000  0.000000  0.000000     12.000000
  0.480000  0.000000  0.000000     12.000000
  0.040000  0.040000  0.000000     24.000000
  0.080000  0.040000  0.000000     48.000000
  0.120000  0.040000  0.000000     48.000000
  0.160000  0.040000  0.000000     48.000000
  0.200000  0.040000 -0.000000     48.000000
  0.240000  0.040000 -0.000000     48.000000
  0.280000  0.040000  0.000000     48.000000
  0.320000  0.040000  0.000000     48.000000
  0.360000  0.040000  0.000000     48.000000
  0.400000  0.040000  0.000000     48.000000
  0.440000  0.040000  0.000000     48.000000
  0.480000  0.040000  0.000000     24.000000
  0.080000  0.080000  0.000000     24.000000
  0.120000  0.080000  0.000000     48.000000
  0.160000  0.080000  0.000000     48.000000
  0.200000  0.080000 -0.000000     48.000000
  0.240000  0.080000  0.000000     48.000000
  0.280000  0.080000  0.000000     48.000000
  0.320000  0.080000  0.000000     48.000000
  0.360000  0.080000  0.000000     48.000000
  0.400000  0.080000 -0.000000     48.000000
  0.440000  0.080000  0.000000     48.000000
  0.120000  0.120000  0.000000     24.000000
  0.160000  0.120000  0.000000     48.000000
  0.200000  0.120000  0.000000     48.000000
  0.240000  0.120000  0.000000     48.000000
  0.280000  0.120000  0.000000     48.000000
  0.320000  0.120000  0.000000     48.000000
  0.360000  0.120000 -0.000000     48.000000
  0.400000  0.120000  0.000000     48.000000
  0.440000  0.120000  0.000000     24.000000
  0.160000  0.160000  0.000000     24.000000
  0.200000  0.160000  0.000000     48.000000
  0.240000  0.160000  0.000000     48.000000
  0.280000  0.160000  0.000000     48.000000
  0.320000  0.160000  0.000000     48.000000
  0.360000  0.160000  0.000000     48.000000
  0.400000  0.160000  0.000000     48.000000
  0.200000  0.200000 -0.000000     24.000000
  0.240000  0.200000  0.000000     48.000000
  0.280000  0.200000 -0.000000     48.000000
  0.320000  0.200000  0.000000     48.000000
  0.360000  0.200000 -0.000000     48.000000
  0.400000  0.200000  0.000000     24.000000
  0.240000  0.240000 -0.000000     24.000000
  0.280000  0.240000  0.000000     48.000000
  0.320000  0.240000 -0.000000     48.000000
  0.360000  0.240000 -0.000000     48.000000
  0.280000  0.280000 -0.000000     24.000000
  0.320000  0.280000  0.000000     48.000000
  0.360000  0.280000 -0.000000     24.000000
  0.320000  0.320000 -0.000000     24.000000
  0.040000  0.040000  0.040000      8.000000
  0.080000  0.040000  0.040000     24.000000
  0.120000  0.040000  0.040000     24.000000
  0.160000  0.040000  0.040000     24.000000
  0.200000  0.040000  0.040000     24.000000
  0.240000  0.040000  0.040000     24.000000
  0.280000  0.040000  0.040000     24.000000
  0.320000  0.040000  0.040000     24.000000
  0.360000  0.040000  0.040000     24.000000
  0.400000  0.040000  0.040000     24.000000
  0.440000  0.040000  0.040000     24.000000
 -0.040000  0.040000  0.040000      6.000000
  0.080000  0.080000  0.040000     24.000000
  0.120000  0.080000  0.040000     48.000000
  0.160000  0.080000  0.040000     48.000000
  0.200000  0.080000  0.040000     48.000000
  0.240000  0.080000  0.040000     48.000000
  0.280000  0.080000  0.040000     48.000000
  0.320000  0.080000  0.040000     48.000000
  0.360000  0.080000  0.040000     48.000000
  0.400000  0.080000  0.040000     48.000000
  0.440000  0.080000  0.040000     24.000000
 -0.080000  0.080000  0.040000     24.000000
  0.120000  0.120000  0.040000     24.000000
  0.160000  0.120000  0.040000     48.000000
  0.200000  0.120000  0.040000     48.000000
  0.240000  0.120000  0.040000     48.000000
  0.280000  0.120000  0.040000     48.000000
  0.320000  0.120000  0.040000     48.000000
  0.360000  0.120000  0.040000     48.000000
  0.400000  0.120000  0.040000     48.000000
 -0.120000  0.120000  0.040000     24.000000
 -0.080000  0.120000  0.040000     24.000000
  0.160000  0.160000  0.040000     24.000000
  0.200000  0.160000  0.040000     48.000000
  0.240000  0.160000  0.040000     48.000000
  0.280000  0.160000  0.040000     48.000000
  0.320000  0.160000  0.040000     48.000000
  0.360000  0.160000  0.040000     48.000000
  0.400000  0.160000  0.040000     24.000000
 -0.160000  0.160000  0.040000     24.000000
 -0.120000  0.160000  0.040000     48.000000
  0.200000  0.200000  0.040000     24.000000
  0.240000  0.200000  0.040000     48.000000
  0.280000  0.200000  0.040000     48.000000
  0.320000  0.200000  0.040000     48.000000
  0.360000  0.200000  0.040000     48.000000
 -0.200000  0.200000  0.040000     24.000000
 -0.160000  0.200000  0.040000     48.000000
 -0.120000  0.200000  0.040000     24.000000
  0.240000  0.240000  0.040000     24.000000
  0.280000  0.240000  0.040000     48.000000
  0.320000  0.240000  0.040000     48.000000
  0.360000  0.240000  0.040000     24.000000
 -0.240000  0.240000  0.040000     24.000000
 -0.200000  0.240000  0.040000     48.000000
 -0.160000  0.240000  0.040000     48.000000
  0.280000  0.280000  0.040000     24.000000
  0.320000  0.280000  0.040000     48.000000
 -0.280000  0.280000  0.040000     24.000000
 -0.240000  0.280000  0.040000     48.000000
 -0.200000  0.280000  0.040000     48.000000
 -0.160000  0.280000  0.040000     24.000000
  0.320000  0.320000  0.040000      8.000000
 -0.320000  0.320000  0.040000     24.000000
 -0.280000  0.320000  0.040000     48.000000
 -0.240000  0.320000  0.040000     48.000000
 -0.200000  0.320000  0.040000     48.000000
 -0.360000  0.360000  0.040000     24.000000
 -0.320000  0.360000  0.040000     48.000000
 -0.280000  0.360000  0.040000     48.000000
 -0.240000  0.360000  0.040000     48.000000
 -0.200000  0.360000  0.040000     24.000000
 -0.400000  0.400000  0.040000     24.000000
 -0.360000  0.400000  0.040000     48.000000
 -0.320000  0.400000  0.040000     48.000000
 -0.280000  0.400000  0.040000     48.000000
 -0.240000  0.400000  0.040000     48.000000
 -0.440000  0.440000  0.040000     24.000000
 -0.400000  0.440000  0.040000     48.000000
 -0.360000  0.440000  0.040000     48.000000
 -0.320000  0.440000  0.040000     48.000000
 -0.280000  0.440000  0.040000     48.000000
 -0.240000  0.440000  0.040000     24.000000
 -0.480000  0.480000  0.040000     24.000000
 -0.440000  0.480000  0.040000     48.000000
 -0.400000  0.480000  0.040000     48.000000
 -0.360000  0.480000  0.040000     48.000000
 -0.320000  0.480000  0.040000     48.000000
 -0.280000  0.480000  0.040000     48.000000
 -0.480000 -0.480000  0.040000     24.000000
 -0.440000 -0.480000  0.040000     48.000000
 -0.400000 -0.480000  0.040000     48.000000
 -0.360000 -0.480000  0.040000     48.000000
 -0.320000 -0.480000  0.040000     48.000000
 -0.280000 -0.480000  0.040000     24.000000
 -0.440000 -0.440000  0.040000     24.000000
 -0.400000 -0.440000  0.040000     48.000000
 -0.360000 -0.440000  0.040000     48.000000
 -0.320000 -0.440000  0.040000     48.000000
 -0.400000 -0.400000  0.040000     24.000000
 -0.360000 -0.400000  0.040000     48.000000
 -0.320000 -0.400000  0.040000     24.000000
 -0.360000 -0.360000  0.040000     24.000000
  0.080000  0.080000  0.080000      8.000000
  0.120000  0.080000  0.080000     24.000000
  0.160000  0.080000  0.080000     24.000000
  0.200000  0.080000  0.080000     24.000000
  0.240000  0.080000  0.080000     24.000000
  0.280000  0.080000  0.080000     24.000000
  0.320000  0.080000  0.080000     24.000000
  0.360000  0.080000  0.080000     24.000000
  0.400000  0.080000  0.080000     24.000000
 -0.080000  0.080000  0.080000      6.000000
  0.120000  0.120000  0.080000     24.000000
  0.160000  0.120000  0.080000     48.000000
  0.200000  0.120000  0.080000     48.000000
  0.240000  0.120000  0.080000     48.000000
  0.280000  0.120000  0.080000     48.000000
  0.320000  0.120000  0.080000     48.000000
  0.360000  0.120000  0.080000     48.000000
  0.400000  0.120000  0.080000     24.000000
 -0.120000  0.120000  0.080000     24.000000
  0.160000  0.160000  0.080000     24.000000
  0.200000  0.160000  0.080000     48.000000
  0.240000  0.160000  0.080000     48.000000
  0.280000  0.160000  0.080000     48.000000
  0.320000  0.160000  0.080000     48.000000
  0.360000  0.160000  0.080000     48.000000
 -0.160000  0.160000  0.080000     24.000000
 -0.120000  0.160000  0.080000     24.000000
  0.200000  0.200000  0.080000     24.000000
  0.240000  0.200000  0.080000     48.000000
  0.280000  0.200000  0.080000     48.000000
  0.320000  0.200000  0.080000     48.000000
  0.360000  0.200000  0.080000     24.000000
 -0.200000  0.200000  0.080000     24.000000
 -0.160000  0.200000  0.080000     48.000000
  0.240000  0.240000  0.080000     24.000000
  0.280000  0.240000  0.080000     48.000000
  0.320000  0.240000  0.080000     48.000000
 -0.240000  0.240000  0.080000     24.000000
 -0.200000  0.240000  0.080000     48.000000
 -0.160000  0.240000  0.080000     24.000000
  0.280000  0.280000  0.080000     24.000000
  0.320000  0.280000  0.080000     24.000000
 -0.280000  0.280000  0.080000     24.000000
 -0.240000  0.280000  0.080000     48.000000
 -0.200000  0.280000  0.080000     48.000000
 -0.320000  0.320000  0.080000     24.000000
 -0.280000  0.320000  0.080000     48.000000
 -0.240000  0.320000  0.080000     48.000000
 -0.200000  0.320000  0.080000     24.000000
 -0.360000  0.360000  0.080000     24.000000
 -0.320000  0.360000  0.080000     48.000000
 -0.280000  0.360000  0.080000     48.000000
 -0.240000  0.360000  0.080000     48.000000
 -0.400000  0.400000  0.080000     24.000000
 -0.360000  0.400000  0.080000     48.000000
 -0.320000  0.400000  0.080000     48.000000
 -0.280000  0.400000  0.080000     48.000000
 -0.240000  0.400000  0.080000     24.000000
 -0.440000  0.440000  0.080000     24.000000
 -0.400000  0.440000  0.080000     48.000000
 -0.360000  0.440000  0.080000     48.000000
 -0.320000  0.440000  0.080000     48.000000
 -0.280000  0.440000  0.080000     48.000000
 -0.480000  0.480000  0.080000     24.000000
 -0.440000  0.480000  0.080000     48.000000
 -0.400000  0.480000  0.080000     48.000000
 -0.360000  0.480000  0.080000     48.000000
 -0.320000  0.480000  0.080000     48.000000
 -0.280000  0.480000  0.080000     24.000000
 -0.480000 -0.480000  0.080000     24.000000
 -0.440000 -0.480000  0.080000     48.000000
 -0.400000 -0.480000  0.080000     48.000000
 -0.360000 -0.480000  0.080000     48.000000
 -0.320000 -0.480000  0.080000     48.000000
 -0.440000 -0.440000  0.080000     24.000000
 -0.400000 -0.440000  0.080000     48.000000
 -0.360000 -0.440000  0.080000     48.000000
 -0.320000 -0.440000  0.080000     24.000000
 -0.400000 -0.400000  0.080000     24.000000
 -0.360000 -0.400000  0.080000     48.000000
 -0.360000 -0.360000  0.080000      8.000000
  0.120000  0.120000  0.120000      8.000000
  0.160000  0.120000  0.120000     24.000000
  0.200000  0.120000  0.120000     24.000000
  0.240000  0.120000  0.120000     24.000000
  0.280000  0.120000  0.120000     24.000000
  0.320000  0.120000  0.120000     24.000000
  0.360000  0.120000  0.120000     24.000000
 -0.120000  0.120000  0.120000      6.000000
  0.160000  0.160000  0.120000     24.000000
  0.200000  0.160000  0.120000     48.000000
  0.240000  0.160000  0.120000     48.000000
  0.280000  0.160000  0.120000     48.000000
  0.320000  0.160000  0.120000     48.000000
  0.360000  0.160000  0.120000     24.000000
 -0.160000  0.160000  0.120000     24.000000
  0.200000  0.200000  0.120000     24.000000
  0.240000  0.200000  0.120000     48.000000
  0.280000  0.200000  0.120000     48.000000
  0.320000  0.200000  0.120000     48.000000
 -0.200000  0.200000  0.120000     24.000000
 -0.160000  0.200000  0.120000     24.000000
  0.240000  0.240000  0.120000     24.000000
  0.280000  0.240000  0.120000     48.000000
  0.320000  0.240000  0.120000     24.000000
 -0.240000  0.240000  0.120000     24.000000
 -0.200000  0.240000  0.120000     48.000000
  0.280000  0.280000  0.120000     24.000000
 -0.280000  0.280000  0.120000     24.000000
 -0.240000  0.280000  0.120000     48.000000
 -0.200000  0.280000  0.120000     24.000000
 -0.320000  0.320000  0.120000     24.000000
 -0.280000  0.320000  0.120000     48.000000
 -0.240000  0.320000  0.120000     48.000000
 -0.360000  0.360000  0.120000     24.000000
 -0.320000  0.360000  0.120000     48.000000
 -0.280000  0.360000  0.120000     48.000000
 -0.240000  0.360000  0.120000     24.000000
 -0.400000  0.400000  0.120000     24.000000
 -0.360000  0.400000  0.120000     48.000000
 -0.320000  0.400000  0.120000     48.000000
 -0.280000  0.400000  0.120000     48.000000
 -0.440000  0.440000  0.120000     24.000000
 -0.400000  0.440000  0.120000     48.000000
 -0.360000  0.440000  0.120000     48.000000
 -0.320000  0.440000  0.120000     48.000000
 -0.280000  0.440000  0.120000     24.000000
 -0.480000  0.480000  0.120000     24.000000
 -0.440000  0.480000  0.120000     48.000000
 -0.400000  0.480000  0.120000     48.000000
 -0.360000  0.480000  0.120000     48.000000
 -0.320000  0.480000  0.120000     48.000000
 -0.480000 -0.480000  0.120000     24.000000
 -0.440000 -0.480000  0.120000     48.000000
 -0.400000 -0.480000  0.120000     48.000000
 -0.360000 -0.480000  0.120000     48.000000
 -0.320000 -0.480000  0.120000     24.000000
 -0.440000 -0.440000  0.120000     24.000000
 -0.400000 -0.440000  0.120000     48.000000
 -0.360000 -0.440000  0.120000     48.000000
 -0.400000 -0.400000  0.120000     24.000000
 -0.360000 -0.400000  0.120000     24.000000
  0.160000  0.160000  0.160000      8.000000
  0.200000  0.160000  0.160000     24.000000
  0.240000  0.160000  0.160000     24.000000
  0.280000  0.160000  0.160000     24.000000
  0.320000  0.160000  0.160000     24.000000
 -0.160000  0.160000  0.160000      6.000000
  0.200000  0.200000  0.160000     24.000000
  0.240000  0.200000  0.160000     48.000000
  0.280000  0.200000  0.160000     48.000000
  0.320000  0.200000  0.160000     24.000000
 -0.200000  0.200000  0.160000     24.000000
  0.240000  0.240000  0.160000     24.000000
  0.280000  0.240000  0.160000     48.000000
 -0.240000  0.240000  0.160000     24.000000
 -0.200000  0.240000  0.160000     24.000000
  0.280000  0.280000  0.160000      8.000000
 -0.280000  0.280000  0.160000     24.000000
 -0.240000  0.280000  0.160000     48.000000
 -0.320000  0.320000  0.160000     24.000000
 -0.280000  0.320000  0.160000     48.000000
 -0.240000  0.320000  0.160000     24.000000
 -0.360000  0.360000  0.160000     24.000000
 -0.320000  0.360000  0.160000     48.000000
 -0.280000  0.360000  0.160000     48.000000
 -0.400000  0.400000  0.160000     24.000000
 -0.360000  0.400000  0.160000     48.000000
 -0.320000  0.400000  0.160000     48.000000
 -0.280000  0.400000  0.160000     24.000000
 -0.440000  0.440000  0.160000     24.000000
 -0.400000  0.440000  0.160000     48.000000
 -0.360000  0.440000  0.160000     48.000000
 -0.320000  0.440000  0.160000     48.000000
 -0.480000  0.480000  0.160000     24.000000
 -0.440000  0.480000  0.160000     48.000000
 -0.400000  0.480000  0.160000     48.000000
 -0.360000  0.480000  0.160000     48.000000
 -0.320000  0.480000  0.160000     24.000000
 -0.480000 -0.480000  0.160000     24.000000
 -0.440000 -0.480000  0.160000     48.000000
 -0.400000 -0.480000  0.160000     48.000000
 -0.360000 -0.480000  0.160000     48.000000
 -0.440000 -0.440000  0.160000     24.000000
 -0.400000 -0.440000  0.160000     48.000000
 -0.360000 -0.440000  0.160000     24.000000
 -0.400000 -0.400000  0.160000     24.000000
  0.200000  0.200000  0.200000      8.000000
  0.240000  0.200000  0.200000     24.000000
  0.280000  0.200000  0.200000     24.000000
 -0.200000  0.200000  0.200000      6.000000
  0.240000  0.240000  0.200000     24.000000
  0.280000  0.240000  0.200000     24.000000
 -0.240000  0.240000  0.200000     24.000000
 -0.280000  0.280000  0.200000     24.000000
 -0.240000  0.280000  0.200000     24.000000
 -0.320000  0.320000  0.200000     24.000000
 -0.280000  0.320000  0.200000     48.000000
 -0.360000  0.360000  0.200000     24.000000
 -0.320000  0.360000  0.200000     48.000000
 -0.280000  0.360000  0.200000     24.000000
 -0.400000  0.400000  0.200000     24.000000
 -0.360000  0.400000  0.200000     48.000000
 -0.320000  0.400000  0.200000     48.000000
 -0.440000  0.440000  0.200000     24.000000
 -0.400000  0.440000  0.200000     48.000000
 -0.360000  0.440000  0.200000     48.000000
 -0.320000  0.440000  0.200000     24.000000
 -0.480000  0.480000  0.200000     24.000000
 -0.440000  0.480000  0.200000     48.000000
 -0.400000  0.480000  0.200000     48.000000
 -0.360000  0.480000  0.200000     48.000000
 -0.480000 -0.480000  0.200000     24.000000
 -0.440000 -0.480000  0.200000     48.000000
 -0.400000 -0.480000  0.200000     48.000000
 -0.360000 -0.480000  0.200000     24.000000
 -0.440000 -0.440000  0.200000     24.000000
 -0.400000 -0.440000  0.200000     48.000000
 -0.400000 -0.400000  0.200000      8.000000
  0.240000  0.240000  0.240000      8.000000
 -0.240000  0.240000  0.240000      6.000000
 -0.280000  0.280000  0.240000     24.000000
 -0.320000  0.320000  0.240000     24.000000
 -0.280000  0.320000  0.240000     24.000000
 -0.360000  0.360000  0.240000     24.000000
 -0.320000  0.360000  0.240000     48.000000
 -0.400000  0.400000  0.240000     24.000000
 -0.360000  0.400000  0.240000     48.000000
 -0.320000  0.400000  0.240000     24.000000
 -0.440000  0.440000  0.240000     24.000000
 -0.400000  0.440000  0.240000     48.000000
 -0.360000  0.440000  0.240000     48.000000
 -0.480000  0.480000  0.240000     24.000000
 -0.440000  0.480000  0.240000     48.000000
 -0.400000  0.480000  0.240000     48.000000
 -0.360000  0.480000  0.240000     24.000000
 -0.480000 -0.480000  0.240000     24.000000
 -0.440000 -0.480000  0.240000     48.000000
 -0.400000 -0.480000  0.240000     48.000000
 -0.440000 -0.440000  0.240000     24.000000
 -0.400000 -0.440000  0.240000     24.000000
 -0.280000  0.280000  0.280000      6.000000
 -0.320000  0.320000  0.280000     24.000000
 -0.360000  0.360000  0.280000     24.000000
 -0.320000  0.360000  0.280000     24.000000
 -0.400000  0.400000  0.280000     24.000000
 -0.360000  0.400000  0.280000     48.000000
 -0.440000  0.440000  0.280000     24.000000
 -0.400000  0.440000  0.280000     48.000000
 -0.360000  0.440000  0.280000     24.000000
 -0.480000  0.480000  0.280000     24.000000
 -0.440000  0.480000  0.280000     48.000000
 -0.400000  0.480000  0.280000     48.000000
 -0.480000 -0.480000  0.280000     24.000000
 -0.440000 -0.480000  0.280000     48.000000
 -0.400000 -0.480000  0.280000     24.000000
 -0.440000 -0.440000  0.280000     24.000000
 -0.320000  0.320000  0.320000      6.000000
 -0.360000  0.360000  0.320000     24.000000
 -0.400000  0.400000  0.320000     24.000000
 -0.360000  0.400000  0.320000     24.000000
 -0.440000  0.440000  0.320000     24.000000
 -0.400000  0.440000  0.320000     48.000000
 -0.480000  0.480000  0.320000     24.000000
 -0.440000  0.480000  0.320000     48.000000
 -0.400000  0.480000  0.320000     24.000000
 -0.480000 -0.480000  0.320000     24.000000
 -0.440000 -0.480000  0.320000     48.000000
 -0.440000 -0.440000  0.320000      8.000000
 -0.360000  0.360000  0.360000      6.000000
 -0.400000  0.400000  0.360000     24.000000
 -0.440000  0.440000  0.360000     24.000000
 -0.400000  0.440000  0.360000     24.000000
 -0.480000  0.480000  0.360000     24.000000
 -0.440000  0.480000  0.360000     48.000000
 -0.480000 -0.480000  0.360000     24.000000
 -0.440000 -0.480000  0.360000     24.000000
 -0.400000  0.400000  0.400000      6.000000
 -0.440000  0.440000  0.400000     24.000000
 -0.480000  0.480000  0.400000     24.000000
 -0.440000  0.480000  0.400000     24.000000
 -0.480000 -0.480000  0.400000     24.000000
 -0.440000  0.440000  0.440000      6.000000
 -0.480000  0.480000  0.440000     24.000000
 -0.480000 -0.480000  0.440000      8.000000
 -0.480000  0.480000  0.480000      6.000000
 
 Following cartesian coordinates:
            Coordinates               Weight
  0.000000  0.000000  0.000000      1.000000
  0.000000  0.014193  0.014193     12.000000
  0.000000  0.028387  0.028387     12.000000
  0.000000  0.042580  0.042580     12.000000
  0.000000  0.056774  0.056774     12.000000
 -0.000000  0.070967  0.070967     12.000000
  0.000000  0.085161  0.085161     12.000000
 -0.000000  0.099354  0.099354     12.000000
  0.000000  0.113548  0.113548     12.000000
  0.000000  0.127741  0.127741     12.000000
  0.000000  0.141935  0.141935     12.000000
  0.000000  0.156128  0.156128     12.000000
  0.000000  0.170321  0.170321     12.000000
  0.014193  0.014193  0.028387     24.000000
  0.014193  0.028387  0.042580     48.000000
  0.014193  0.042580  0.056774     48.000000
  0.014193  0.056774  0.070967     48.000000
  0.014193  0.070967  0.085161     48.000000
  0.014193  0.085161  0.099354     48.000000
  0.014193  0.099354  0.113548     48.000000
  0.014193  0.113548  0.127741     48.000000
  0.014193  0.127741  0.141935     48.000000
  0.014193  0.141935  0.156128     48.000000
  0.014193  0.156128  0.170321     48.000000
  0.014193  0.170321  0.184515     24.000000
  0.028387  0.028387  0.056774     24.000000
  0.028387  0.042580  0.070967     48.000000
  0.028387  0.056774  0.085161     48.000000
  0.028387  0.070967  0.099354     48.000000
  0.028387  0.085161  0.113548     48.000000
  0.028387  0.099354  0.127741     48.000000
  0.028387  0.113548  0.141935     48.000000
  0.028387  0.127741  0.156128     48.000000
  0.028387  0.141935  0.170321     48.000000
  0.028387  0.156128  0.184515     48.000000
  0.042580  0.042580  0.085161     24.000000
  0.042580  0.056774  0.099354     48.000000
  0.042580  0.070967  0.113548     48.000000
  0.042580  0.085161  0.127741     48.000000
  0.042580  0.099354  0.141935     48.000000
  0.042580  0.113548  0.156128     48.000000
  0.042580  0.127741  0.170321     48.000000
  0.042580  0.141935  0.184515     48.000000
  0.042580  0.156128  0.198708     24.000000
  0.056774  0.056774  0.113548     24.000000
  0.056774  0.070967  0.127741     48.000000
  0.056774  0.085161  0.141935     48.000000
  0.056774  0.099354  0.156128     48.000000
  0.056774  0.113548  0.170321     48.000000
  0.056774  0.127741  0.184515     48.000000
  0.056774  0.141935  0.198708     48.000000
  0.070967  0.070967  0.141935     24.000000
  0.070967  0.085161  0.156128     48.000000
  0.070967  0.099354  0.170321     48.000000
  0.070967  0.113548  0.184515     48.000000
  0.070967  0.127741  0.198708     48.000000
  0.070967  0.141935  0.212902     24.000000
  0.085161  0.085161  0.170321     24.000000
  0.085161  0.099354  0.184515     48.000000
  0.085161  0.113548  0.198708     48.000000
  0.085161  0.127741  0.212902     48.000000
  0.099354  0.099354  0.198708     24.000000
  0.099354  0.113548  0.212902     48.000000
  0.099354  0.127741  0.227095     24.000000
  0.113548  0.113548  0.227095     24.000000
  0.028387  0.028387  0.028387      8.000000
  0.028387  0.042580  0.042580     24.000000
  0.028387  0.056774  0.056774     24.000000
  0.028387  0.070967  0.070967     24.000000
  0.028387  0.085161  0.085161     24.000000
  0.028387  0.099354  0.099354     24.000000
  0.028387  0.113548  0.113548     24.000000
  0.028387  0.127741  0.127741     24.000000
  0.028387  0.141935  0.141935     24.000000
  0.028387  0.156128  0.156128     24.000000
  0.028387  0.170321  0.170321     24.000000
  0.028387  0.000000  0.000000      6.000000
  0.042580  0.042580  0.056774     24.000000
  0.042580  0.056774  0.070967     48.000000
  0.042580  0.070967  0.085161     48.000000
  0.042580  0.085161  0.099354     48.000000
  0.042580  0.099354  0.113548     48.000000
  0.042580  0.113548  0.127741     48.000000
  0.042580  0.127741  0.141935     48.000000
  0.042580  0.141935  0.156128     48.000000
  0.042580  0.156128  0.170321     48.000000
  0.042580  0.170321  0.184515     24.000000
  0.042580 -0.014193  0.000000     24.000000
  0.056774  0.056774  0.085161     24.000000
  0.056774  0.070967  0.099354     48.000000
  0.056774  0.085161  0.113548     48.000000
  0.056774  0.099354  0.127741     48.000000
  0.056774  0.113548  0.141935     48.000000
  0.056774  0.127741  0.156128     48.000000
  0.056774  0.141935  0.170321     48.000000
  0.056774  0.156128  0.184515     48.000000
  0.056774 -0.028387 -0.000000     24.000000
  0.056774 -0.014193  0.014193     24.000000
  0.070967  0.070967  0.113548     24.000000
  0.070967  0.085161  0.127741     48.000000
  0.070967  0.099354  0.141935     48.000000
  0.070967  0.113548  0.156128     48.000000
  0.070967  0.127741  0.170321     48.000000
  0.070967  0.141935  0.184515     48.000000
  0.070967  0.156128  0.198708     24.000000
  0.070967 -0.042580 -0.000000     24.000000
  0.070967 -0.028387  0.014193     48.000000
  0.085161  0.085161  0.141935     24.000000
  0.085161  0.099354  0.156128     48.000000
  0.085161  0.113548  0.170321     48.000000
  0.085161  0.127741  0.184515     48.000000
  0.085161  0.141935  0.198708     48.000000
  0.085161 -0.056774 -0.000000     24.000000
  0.085161 -0.042580  0.014193     48.000000
  0.085161 -0.028387  0.028387     24.000000
  0.099354  0.099354  0.170321     24.000000
  0.099354  0.113548  0.184515     48.000000
  0.099354  0.127741  0.198708     48.000000
  0.099354  0.141935  0.212902     24.000000
  0.099354 -0.070967 -0.000000     24.000000
  0.099354 -0.056774  0.014193     48.000000
  0.099354 -0.042580  0.028387     48.000000
  0.113548  0.113548  0.198708     24.000000
  0.113548  0.127741  0.212902     48.000000
  0.113548 -0.085161 -0.000000     24.000000
  0.113548 -0.070967  0.014193     48.000000
  0.113548 -0.056774  0.028387     48.000000
  0.113548 -0.042580  0.042580     24.000000
  0.127741  0.127741  0.227095      8.000000
  0.127741 -0.099354  0.000000     24.000000
  0.127741 -0.085161  0.014193     48.000000
  0.127741 -0.070967  0.028387     48.000000
  0.127741 -0.056774  0.042580     48.000000
  0.141935 -0.113548 -0.000000     24.000000
  0.141935 -0.099354  0.014193     48.000000
  0.141935 -0.085161  0.028387     48.000000
  0.141935 -0.070967  0.042580     48.000000
  0.141935 -0.056774  0.056774     24.000000
  0.156128 -0.127741 -0.000000     24.000000
  0.156128 -0.113548  0.014193     48.000000
  0.156128 -0.099354  0.028387     48.000000
  0.156128 -0.085161  0.042580     48.000000
  0.156128 -0.070967  0.056774     48.000000
  0.170321 -0.141935  0.000000     24.000000
  0.170321 -0.127741  0.014193     48.000000
  0.170321 -0.113548  0.028387     48.000000
  0.170321 -0.099354  0.042580     48.000000
  0.170321 -0.085161  0.056774     48.000000
  0.170321 -0.070967  0.070967     24.000000
  0.184515 -0.156128  0.000000     24.000000
  0.184515 -0.141935  0.014193     48.000000
  0.184515 -0.127741  0.028387     48.000000
  0.184515 -0.113548  0.042580     48.000000
  0.184515 -0.099354  0.056774     48.000000
  0.184515 -0.085161  0.070967     48.000000
 -0.156128 -0.156128 -0.340643     24.000000
 -0.156128 -0.141935 -0.326450     48.000000
 -0.156128 -0.127741 -0.312256     48.000000
 -0.156128 -0.113548 -0.298063     48.000000
 -0.156128 -0.099354 -0.283869     48.000000
 -0.156128 -0.085161 -0.269676     24.000000
 -0.141935 -0.141935 -0.312256     24.000000
 -0.141935 -0.127741 -0.298063     48.000000
 -0.141935 -0.113548 -0.283869     48.000000
 -0.141935 -0.099354 -0.269676     48.000000
 -0.127741 -0.127741 -0.283869     24.000000
 -0.127741 -0.113548 -0.269676     48.000000
 -0.127741 -0.099354 -0.255482     24.000000
 -0.113548 -0.113548 -0.255482     24.000000
  0.056774  0.056774  0.056774      8.000000
  0.056774  0.070967  0.070967     24.000000
  0.056774  0.085161  0.085161     24.000000
  0.056774  0.099354  0.099354     24.000000
  0.056774  0.113548  0.113548     24.000000
  0.056774  0.127741  0.127741     24.000000
  0.056774  0.141935  0.141935     24.000000
  0.056774  0.156128  0.156128     24.000000
  0.056774  0.170321  0.170321     24.000000
  0.056774  0.000000 -0.000000      6.000000
  0.070967  0.070967  0.085161     24.000000
  0.070967  0.085161  0.099354     48.000000
  0.070967  0.099354  0.113548     48.000000
  0.070967  0.113548  0.127741     48.000000
  0.070967  0.127741  0.141935     48.000000
  0.070967  0.141935  0.156128     48.000000
  0.070967  0.156128  0.170321     48.000000
  0.070967  0.170321  0.184515     24.000000
  0.070967 -0.014193 -0.000000     24.000000
  0.085161  0.085161  0.113548     24.000000
  0.085161  0.099354  0.127741     48.000000
  0.085161  0.113548  0.141935     48.000000
  0.085161  0.127741  0.156128     48.000000
  0.085161  0.141935  0.170321     48.000000
  0.085161  0.156128  0.184515     48.000000
  0.085161 -0.028387 -0.000000     24.000000
  0.085161 -0.014193  0.014193     24.000000
  0.099354  0.099354  0.141935     24.000000
  0.099354  0.113548  0.156128     48.000000
  0.099354  0.127741  0.170321     48.000000
  0.099354  0.141935  0.184515     48.000000
  0.099354  0.156128  0.198708     24.000000
  0.099354 -0.042580 -0.000000     24.000000
  0.099354 -0.028387  0.014193     48.000000
  0.113548  0.113548  0.170321     24.000000
  0.113548  0.127741  0.184515     48.000000
  0.113548  0.141935  0.198708     48.000000
  0.113548 -0.056774 -0.000000     24.000000
  0.113548 -0.042580  0.014193     48.000000
  0.113548 -0.028387  0.028387     24.000000
  0.127741  0.127741  0.198708     24.000000
  0.127741  0.141935  0.212902     24.000000
  0.127741 -0.070967 -0.000000     24.000000
  0.127741 -0.056774  0.014193     48.000000
  0.127741 -0.042580  0.028387     48.000000
  0.141935 -0.085161  0.000000     24.000000
  0.141935 -0.070967  0.014193     48.000000
  0.141935 -0.056774  0.028387     48.000000
  0.141935 -0.042580  0.042580     24.000000
  0.156128 -0.099354  0.000000     24.000000
  0.156128 -0.085161  0.014193     48.000000
  0.156128 -0.070967  0.028387     48.000000
  0.156128 -0.056774  0.042580     48.000000
  0.170321 -0.113548 -0.000000     24.000000
  0.170321 -0.099354  0.014193     48.000000
  0.170321 -0.085161  0.028387     48.000000
  0.170321 -0.070967  0.042580     48.000000
  0.170321 -0.056774  0.056774     24.000000
  0.184515 -0.127741  0.000000     24.000000
  0.184515 -0.113548  0.014193     48.000000
  0.184515 -0.099354  0.028387     48.000000
  0.184515 -0.085161  0.042580     48.000000
  0.184515 -0.070967  0.056774     48.000000
  0.198708 -0.141935  0.000000     24.000000
  0.198708 -0.127741  0.014193     48.000000
  0.198708 -0.113548  0.028387     48.000000
  0.198708 -0.099354  0.042580     48.000000
  0.198708 -0.085161  0.056774     48.000000
  0.198708 -0.070967  0.070967     24.000000
 -0.141935 -0.141935 -0.340643     24.000000
 -0.141935 -0.127741 -0.326450     48.000000
 -0.141935 -0.113548 -0.312256     48.000000
 -0.141935 -0.099354 -0.298063     48.000000
 -0.141935 -0.085161 -0.283869     48.000000
 -0.127741 -0.127741 -0.312256     24.000000
 -0.127741 -0.113548 -0.298063     48.000000
 -0.127741 -0.099354 -0.283869     48.000000
 -0.127741 -0.085161 -0.269676     24.000000
 -0.113548 -0.113548 -0.283869     24.000000
 -0.113548 -0.099354 -0.269676     48.000000
 -0.099354 -0.099354 -0.255482      8.000000
  0.085161  0.085161  0.085161      8.000000
  0.085161  0.099354  0.099354     24.000000
  0.085161  0.113548  0.113548     24.000000
  0.085161  0.127741  0.127741     24.000000
  0.085161  0.141935  0.141935     24.000000
  0.085161  0.156128  0.156128     24.000000
  0.085161  0.170321  0.170321     24.000000
  0.085161  0.000000 -0.000000      6.000000
  0.099354  0.099354  0.113548     24.000000
  0.099354  0.113548  0.127741     48.000000
  0.099354  0.127741  0.141935     48.000000
  0.099354  0.141935  0.156128     48.000000
  0.099354  0.156128  0.170321     48.000000
  0.099354  0.170321  0.184515     24.000000
  0.099354 -0.014193 -0.000000     24.000000
  0.113548  0.113548  0.141935     24.000000
  0.113548  0.127741  0.156128     48.000000
  0.113548  0.141935  0.170321     48.000000
  0.113548  0.156128  0.184515     48.000000
  0.113548 -0.028387 -0.000000     24.000000
  0.113548 -0.014193  0.014193     24.000000
  0.127741  0.127741  0.170321     24.000000
  0.127741  0.141935  0.184515     48.000000
  0.127741  0.156128  0.198708     24.000000
  0.127741 -0.042580 -0.000000     24.000000
  0.127741 -0.028387  0.014193     48.000000
  0.141935  0.141935  0.198708     24.000000
  0.141935 -0.056774  0.000000     24.000000
  0.141935 -0.042580  0.014193     48.000000
  0.141935 -0.028387  0.028387     24.000000
  0.156128 -0.070967  0.000000     24.000000
  0.156128 -0.056774  0.014193     48.000000
  0.156128 -0.042580  0.028387     48.000000
  0.170321 -0.085161 -0.000000     24.000000
  0.170321 -0.070967  0.014193     48.000000
  0.170321 -0.056774  0.028387     48.000000
  0.170321 -0.042580  0.042580     24.000000
  0.184515 -0.099354 -0.000000     24.000000
  0.184515 -0.085161  0.014193     48.000000
  0.184515 -0.070967  0.028387     48.000000
  0.184515 -0.056774  0.042580     48.000000
  0.198708 -0.113548  0.000000     24.000000
  0.198708 -0.099354  0.014193     48.000000
  0.198708 -0.085161  0.028387     48.000000
  0.198708 -0.070967  0.042580     48.000000
  0.198708 -0.056774  0.056774     24.000000
  0.212902 -0.127741 -0.000000     24.000000
  0.212902 -0.113548  0.014193     48.000000
  0.212902 -0.099354  0.028387     48.000000
  0.212902 -0.085161  0.042580     48.000000
  0.212902 -0.070967  0.056774     48.000000
 -0.127741 -0.127741 -0.340643     24.000000
 -0.127741 -0.113548 -0.326450     48.000000
 -0.127741 -0.099354 -0.312256     48.000000
 -0.127741 -0.085161 -0.298063     48.000000
 -0.127741 -0.070967 -0.283869     24.000000
 -0.113548 -0.113548 -0.312256     24.000000
 -0.113548 -0.099354 -0.298063     48.000000
 -0.113548 -0.085161 -0.283869     48.000000
 -0.099354 -0.099354 -0.283869     24.000000
 -0.099354 -0.085161 -0.269676     24.000000
  0.113548  0.113548  0.113548      8.000000
  0.113548  0.127741  0.127741     24.000000
  0.113548  0.141935  0.141935     24.000000
  0.113548  0.156128  0.156128     24.000000
  0.113548  0.170321  0.170321     24.000000
  0.113548 -0.000000 -0.000000      6.000000
  0.127741  0.127741  0.141935     24.000000
  0.127741  0.141935  0.156128     48.000000
  0.127741  0.156128  0.170321     48.000000
  0.127741  0.170321  0.184515     24.000000
  0.127741 -0.014193 -0.000000     24.000000
  0.141935  0.141935  0.170321     24.000000
  0.141935  0.156128  0.184515     48.000000
  0.141935 -0.028387  0.000000     24.000000
  0.141935 -0.014193  0.014193     24.000000
  0.156128  0.156128  0.198708      8.000000
  0.156128 -0.042580 -0.000000     24.000000
  0.156128 -0.028387  0.014193     48.000000
  0.170321 -0.056774  0.000000     24.000000
  0.170321 -0.042580  0.014193     48.000000
  0.170321 -0.028387  0.028387     24.000000
  0.184515 -0.070967 -0.000000     24.000000
  0.184515 -0.056774  0.014193     48.000000
  0.184515 -0.042580  0.028387     48.000000
  0.198708 -0.085161  0.000000     24.000000
  0.198708 -0.070967  0.014193     48.000000
  0.198708 -0.056774  0.028387     48.000000
  0.198708 -0.042580  0.042580     24.000000
  0.212902 -0.099354  0.000000     24.000000
  0.212902 -0.085161  0.014193     48.000000
  0.212902 -0.070967  0.028387     48.000000
  0.212902 -0.056774  0.042580     48.000000
  0.227095 -0.113548  0.000000     24.000000
  0.227095 -0.099354  0.014193     48.000000
  0.227095 -0.085161  0.028387     48.000000
  0.227095 -0.070967  0.042580     48.000000
  0.227095 -0.056774  0.056774     24.000000
 -0.113548 -0.113548 -0.340643     24.000000
 -0.113548 -0.099354 -0.326450     48.000000
 -0.113548 -0.085161 -0.312256     48.000000
 -0.113548 -0.070967 -0.298063     48.000000
 -0.099354 -0.099354 -0.312256     24.000000
 -0.099354 -0.085161 -0.298063     48.000000
 -0.099354 -0.070967 -0.283869     24.000000
 -0.085161 -0.085161 -0.283869     24.000000
  0.141935  0.141935  0.141935      8.000000
  0.141935  0.156128  0.156128     24.000000
  0.141935  0.170321  0.170321     24.000000
  0.141935 -0.000000 -0.000000      6.000000
  0.156128  0.156128  0.170321     24.000000
  0.156128  0.170321  0.184515     24.000000
  0.156128 -0.014193  0.000000     24.000000
  0.170321 -0.028387  0.000000     24.000000
  0.170321 -0.014193  0.014193     24.000000
  0.184515 -0.042580  0.000000     24.000000
  0.184515 -0.028387  0.014193     48.000000
  0.198708 -0.056774  0.000000     24.000000
  0.198708 -0.042580  0.014193     48.000000
  0.198708 -0.028387  0.028387     24.000000
  0.212902 -0.070967 -0.000000     24.000000
  0.212902 -0.056774  0.014193     48.000000
  0.212902 -0.042580  0.028387     48.000000
  0.227095 -0.085161  0.000000     24.000000
  0.227095 -0.070967  0.014193     48.000000
  0.227095 -0.056774  0.028387     48.000000
  0.227095 -0.042580  0.042580     24.000000
  0.241289 -0.099354  0.000000     24.000000
  0.241289 -0.085161  0.014193     48.000000
  0.241289 -0.070967  0.028387     48.000000
  0.241289 -0.056774  0.042580     48.000000
 -0.099354 -0.099354 -0.340643     24.000000
 -0.099354 -0.085161 -0.326450     48.000000
 -0.099354 -0.070967 -0.312256     48.000000
 -0.099354 -0.056774 -0.298063     24.000000
 -0.085161 -0.085161 -0.312256     24.000000
 -0.085161 -0.070967 -0.298063     48.000000
 -0.070967 -0.070967 -0.283869      8.000000
  0.170321  0.170321  0.170321      8.000000
  0.170321 -0.000000  0.000000      6.000000
  0.184515 -0.014193  0.000000     24.000000
  0.198708 -0.028387  0.000000     24.000000
  0.198708 -0.014193  0.014193     24.000000
  0.212902 -0.042580 -0.000000     24.000000
  0.212902 -0.028387  0.014193     48.000000
  0.227095 -0.056774 -0.000000     24.000000
  0.227095 -0.042580  0.014193     48.000000
  0.227095 -0.028387  0.028387     24.000000
  0.241289 -0.070967  0.000000     24.000000
  0.241289 -0.056774  0.014193     48.000000
  0.241289 -0.042580  0.028387     48.000000
  0.255482 -0.085161  0.000000     24.000000
  0.255482 -0.070967  0.014193     48.000000
  0.255482 -0.056774  0.028387     48.000000
  0.255482 -0.042580  0.042580     24.000000
 -0.085161 -0.085161 -0.340643     24.000000
 -0.085161 -0.070967 -0.326450     48.000000
 -0.085161 -0.056774 -0.312256     48.000000
 -0.070967 -0.070967 -0.312256     24.000000
 -0.070967 -0.056774 -0.298063     24.000000
  0.198708 -0.000000 -0.000000      6.000000
  0.212902 -0.014193  0.000000     24.000000
  0.227095 -0.028387 -0.000000     24.000000
  0.227095 -0.014193  0.014193     24.000000
  0.241289 -0.042580 -0.000000     24.000000
  0.241289 -0.028387  0.014193     48.000000
  0.255482 -0.056774  0.000000     24.000000
  0.255482 -0.042580  0.014193     48.000000
  0.255482 -0.028387  0.028387     24.000000
  0.269676 -0.070967  0.000000     24.000000
  0.269676 -0.056774  0.014193     48.000000
  0.269676 -0.042580  0.028387     48.000000
 -0.070967 -0.070967 -0.340643     24.000000
 -0.070967 -0.056774 -0.326450     48.000000
 -0.070967 -0.042580 -0.312256     24.000000
 -0.056774 -0.056774 -0.312256     24.000000
  0.227095 -0.000000  0.000000      6.000000
  0.241289 -0.014193 -0.000000     24.000000
  0.255482 -0.028387  0.000000     24.000000
  0.255482 -0.014193  0.014193     24.000000
  0.269676 -0.042580  0.000000     24.000000
  0.269676 -0.028387  0.014193     48.000000
  0.283869 -0.056774  0.000000     24.000000
  0.283869 -0.042580  0.014193     48.000000
  0.283869 -0.028387  0.028387     24.000000
 -0.056774 -0.056774 -0.340643     24.000000
 -0.056774 -0.042580 -0.326450     48.000000
 -0.042580 -0.042580 -0.312256      8.000000
  0.255482  0.000000 -0.000000      6.000000
  0.269676 -0.014193 -0.000000     24.000000
  0.283869 -0.028387  0.000000     24.000000
  0.283869 -0.014193  0.014193     24.000000
  0.298063 -0.042580 -0.000000     24.000000
  0.298063 -0.028387  0.014193     48.000000
 -0.042580 -0.042580 -0.340643     24.000000
 -0.042580 -0.028387 -0.326450     24.000000
  0.283869  0.000000 -0.000000      6.000000
  0.298063 -0.014193  0.000000     24.000000
  0.312256 -0.028387 -0.000000     24.000000
  0.312256 -0.014193  0.014193     24.000000
 -0.028387 -0.028387 -0.340643     24.000000
  0.312256  0.000000 -0.000000      6.000000
  0.326450 -0.014193  0.000000     24.000000
 -0.014193 -0.014193 -0.340643      8.000000
  0.340643  0.000000  0.000000      6.000000
 


--------------------------------------------------------------------------------------------------------




 Dimension of arrays:
   k-points           NKPTS =    455   k-points in BZ     NKDIM =    455   number of bands    NBANDS=      8
   number of dos      NEDOS =    301   number of ions     NIONS =      1
   non local maximal  LDIM  =      6   non local SUM 2l+1 LMDIM =     18
   total plane-waves  NPLWV =   5832
   max r-space proj   IRMAX =      1   max aug-charges    IRDMAX=  18760
   dimension x,y,z NGX =    18 NGY =   18 NGZ =   18
   dimension x,y,z NGXF=    36 NGYF=   36 NGZF=   36
   support grid    NGXF=    36 NGYF=   36 NGZF=   36
   ions per type =               1
   NGX,Y,Z   is equivalent  to a cutoff of  12.26, 12.26, 12.26 a.u.
   NGXF,Y,Z  is equivalent  to a cutoff of  24.52, 24.52, 24.52 a.u.

 SYSTEM =  unknown system                          
 POSCAR =  Fe bcc                                  

 Startparameter for this run:
   NWRITE =      2    write-flag & timer
   PREC   = accura    normal or accurate (medium, high low for compatibility)
   ISTART =      0    job   : 0-new  1-cont  2-samecut
   ICHARG =      2    charge: 1-file 2-atom 10-const
   ISPIN  =      1    spin polarized calculation?
   LNONCOLLINEAR =      F non collinear calculations
   LSORBIT =      F    spin-orbit coupling
   INIWAV =      1    electr: 0-lowe 1-rand  2-diag
   LASPH  =      F    aspherical Exc in radial PAW
 Electronic Relaxation 1
   ENCUT  =  500.0 eV  36.75 Ry    6.06 a.u.   4.45  4.45  4.45*2*pi/ulx,y,z
   ENINI  =  500.0     initial cutoff
   ENAUG  =  511.4 eV  augmentation charge cutoff
   NELM   =     60;   NELMIN=  2; NELMDL= -5     # of ELM steps 
   EDIFF  = 0.1E-05   stopping-criterion for ELM
   LREAL  =      F    real-space projection
   NLSPLINE    = F    spline interpolate recip. space projectors
   LCOMPAT=      F    compatible to vasp.4.4
   GGA_COMPAT  = T    GGA compatible to vasp.4.4-vasp.4.6
   LMAXPAW     = -100 max onsite density
   LMAXMIX     =    2 max onsite mixed and CHGCAR
   VOSKOWN=      0    Vosko Wilk Nusair interpolation
   ROPT   =    0.00000
 Ionic relaxation
   EDIFFG = 0.1E-04   stopping-criterion for IOM
   NSW    =      0    number of steps for IOM
   NBLOCK =      1;   KBLOCK =      1    inner block; outer block 
   IBRION =     -1    ionic relax: 0-MD 1-quasi-New 2-CG
   NFREE  =      0    steps in history (QN), initial steepest desc. (CG)
   ISIF   =      2    stress and relaxation
   IWAVPR =     10    prediction:  0-non 1-charg 2-wave 3-comb
   ISYM   =      2    0-nonsym 1-usesym 2-fastsym
   LCORR  =      T    Harris-Foulkes like correction to forces

   POTIM  = 0.5000    time-step for ionic-motion
   TEIN   =    0.0    initial temperature
   TEBEG  =    0.0;   TEEND  =   0.0 temperature during run
   SMASS  =  -3.00    Nose mass-parameter (am)
   estimated Nose-frequenzy (Omega)   =  0.10E-29 period in steps = 0.13E+47 mass=  -0.136E-27a.u.
   SCALEE = 1.0000    scale energy and forces
   NPACO  =    256;   APACO  = 10.0  distance and # of slots for P.C.
   PSTRESS=    0.0 pullay stress

  Mass of Ions in am
   POMASS =  55.85
  Ionic Valenz
   ZVAL   =   8.00
  Atomic Wigner-Seitz radii
   RWIGS  =  -1.00
  virtual crystal weights 
   VCA    =   1.00
   NELECT =       8.0000    total number of electrons
   NUPDOWN=      -1.0000    fix difference up-down

 DOS related values:
   EMIN   =  10.00;   EMAX   =-10.00  energy-range for DOS
   EFERMI =   0.00
   ISMEAR =     0;   SIGMA  =   0.05  broadening in eV -4-tet -1-fermi 0-gaus

 Electronic relaxation 2 (details)
   IALGO  =     38    algorithm
   LDIAG  =      T    sub-space diagonalisation (order eigenvalues)
   LSUBROT=      F    optimize rotation matrix (better conditioning)
   TURBO    =      0    0=normal 1=particle mesh
   IRESTART =      0    0=no restart 2=restart with 2 vectors
   NREBOOT  =      0    no. of reboots
   NMIN     =      0    reboot dimension
   EREF     =   0.00    reference energy to select bands
   IMIX   =      4    mixing-type and parameters
     AMIX     =   0.40;   BMIX     =  1.00
     AMIX_MAG =   1.60;   BMIX_MAG =  1.00
     AMIN     =   0.10
     WC   =   100.;   INIMIX=   1;  MIXPRE=   1;  MAXMIX= -45

 Intra band minimization:
   WEIMIN = 0.0000     energy-eigenvalue tresh-hold
   EBREAK =  0.31E-07  absolut break condition
   DEPER  =   0.30     relativ break condition  

   TIME   =   0.40     timestep for ELM

  volume/ion in A,a.u.               =      11.19        75.52
  Fermi-wavevector in a.u.,A,eV,Ry     =   1.463782  2.766147 29.152621  2.142657
  Thomas-Fermi vector in A             =   2.579836
 
 Write flags
   LWAVE        =      F    write WAVECAR
   LDOWNSAMPLE  =      F    k-point downsampling of WAVECAR
   LCHARG       =      F    write CHGCAR
   LVTOT        =      F    write LOCPOT, total local potential
   LVHAR        =      F    write LOCPOT, Hartree potential only
   LELF         =      F    write electronic localiz. function (ELF)
   LORBIT       =      0    0 simple, 1 ext, 2 COOP (PROOUT), +10 PAW based schemes


 Dipole corrections
   LMONO  =      F    monopole corrections only (constant potential shift)
   LDIPOL =      F    correct potential (dipole corrections)
   IDIPOL =      0    1-x, 2-y, 3-z, 4-all directions 
   EPSILON=  1.0000000 bulk dielectric constant

 Exchange correlation treatment:
   GGA     =    --    GGA type
   LEXCH   =     8    internal setting for exchange type
   LIBXC   =     F    Libxc                    
   VOSKOWN =     0    Vosko Wilk Nusair interpolation
   LHFCALC =     F    Hartree Fock is set to
   LHFONE  =     F    Hartree Fock one center treatment
   AEXX    =    0.0000 exact exchange contribution

 Linear response parameters
   LEPSILON=     F    determine dielectric tensor
   LRPA    =     F    only Hartree local field effects (RPA)
   LNABLA  =     F    use nabla operator in PAW spheres
   LVEL    =     F    velocity operator in full k-point grid
   CSHIFT  =0.1000    complex shift for real part using Kramers Kronig
   OMEGAMAX=  -1.0    maximum frequency
   DEG_THRESHOLD= 0.2000000E-02 threshold for treating states as degnerate
   RTIME   =   -0.100 relaxation time in fs
  (WPLASMAI=    0.000 imaginary part of plasma frequency in eV, 0.658/RTIME)
   DFIELD  = 0.0000000 0.0000000 0.0000000 field for delta impulse in time
 
  Optional k-point grid parameters
   LKPOINTS_OPT  =     F    use optional k-point grid
   KPOINTS_OPT_MODE=     1    mode for optional k-point grid
 
 Orbital magnetization related:
   ORBITALMAG=     F  switch on orbital magnetization
   LCHIMAG   =     F  perturbation theory with respect to B field
   DQ        =  0.001000  dq finite difference perturbation B field
   LLRAUG    =     F  two centre corrections for induced B field



--------------------------------------------------------------------------------------------------------


 Static calculation
 charge density and potential will be updated during run
 non-spin polarized calculation
 Variant of blocked Davidson
 Davidson routine will perform the subspace rotation
 perform sub-space diagonalisation
    after iterative eigenvector-optimisation
 modified Broyden-mixing scheme, WC =      100.0
 initial mixing is a Kerker type mixing with AMIX =  0.4000 and BMIX =      1.0000
 Hartree-type preconditioning will be used
 using additional bands            4
 reciprocal scheme for non local part
 use partial core corrections
 calculate Harris-corrections to forces 
   (improved forces if not selfconsistent)
 use gradient corrections 
 use of overlap-Matrix (Vanderbilt PP)
 Gauss-broadening in eV      SIGMA  =   0.05


--------------------------------------------------------------------------------------------------------


  energy-cutoff  :      500.00
  volume of cell :       11.19
      direct lattice vectors                 reciprocal lattice vectors
    -1.409100000  1.409100000  1.409100000     0.000000000  0.354836420  0.354836420
     1.409100000 -1.409100000  1.409100000     0.354836420  0.000000000  0.354836420
     1.409100000  1.409100000 -1.409100000     0.354836420  0.354836420  0.000000000

  length of vectors
     2.440632793  2.440632793  2.440632793     0.501814478  0.501814478  0.501814478


 
 k-points in units of 2pi/SCALE and weight: K-Spacing Value to Generate K-Mesh: 0.02
   0.00000000  0.00000000  0.00000000       0.000
   0.00000000  0.01419346  0.01419346       0.001
   0.00000000  0.02838691  0.02838691       0.001
   0.00000000  0.04258037  0.04258037       0.001
   0.00000000  0.05677383  0.05677383       0.001
  -0.00000000  0.07096728  0.07096728       0.001
   0.00000000  0.08516074  0.08516074       0.001
  -0.00000000  0.09935420  0.09935420       0.001
   0.00000000  0.11354765  0.11354765       0.001
   0.00000000  0.12774111  0.12774111       0.001
   0.00000000  0.14193457  0.14193457       0.001
   0.00000000  0.15612802  0.15612802       0.001
   0.00000000  0.17032148  0.17032148       0.001
   0.01419346  0.01419346  0.02838691       0.002
   0.01419346  0.02838691  0.04258037       0.003
   0.01419346  0.04258037  0.05677383       0.003
   0.01419346  0.05677383  0.07096728       0.003
   0.01419346  0.07096728  0.08516074       0.003
   0.01419346  0.08516074  0.09935420       0.003
   0.01419346  0.09935420  0.11354765       0.003
   0.01419346  0.11354765  0.12774111       0.003
   0.01419346  0.12774111  0.14193457       0.003
   0.01419346  0.14193457  0.15612802       0.003
   0.01419346  0.15612802  0.17032148       0.003
   0.01419346  0.17032148  0.18451494       0.002
   0.02838691  0.02838691  0.05677383       0.002
   0.02838691  0.04258037  0.07096728       0.003
   0.02838691  0.05677383  0.08516074       0.003
   0.02838691  0.07096728  0.09935420       0.003
   0.02838691  0.08516074  0.11354765       0.003
   0.02838691  0.09935420  0.12774111       0.003
   0.02838691  0.11354765  0.14193457       0.003
   0.02838691  0.12774111  0.15612802       0.003
   0.02838691  0.14193457  0.17032148       0.003
   0.02838691  0.15612802  0.18451494       0.003
   0.04258037  0.04258037  0.08516074       0.002
   0.04258037  0.05677383  0.09935420       0.003
   0.04258037  0.07096728  0.11354765       0.003
   0.04258037  0.08516074  0.12774111       0.003
   0.04258037  0.09935420  0.14193457       0.003
   0.04258037  0.11354765  0.15612802       0.003
   0.04258037  0.12774111  0.17032148       0.003
   0.04258037  0.14193457  0.18451494       0.003
   0.04258037  0.15612802  0.19870840       0.002
   0.05677383  0.05677383  0.11354765       0.002
   0.05677383  0.07096728  0.12774111       0.003
   0.05677383  0.08516074  0.14193457       0.003
   0.05677383  0.09935420  0.15612802       0.003
   0.05677383  0.11354765  0.17032148       0.003
   0.05677383  0.12774111  0.18451494       0.003
   0.05677383  0.14193457  0.19870840       0.003
   0.07096728  0.07096728  0.14193457       0.002
   0.07096728  0.08516074  0.15612802       0.003
   0.07096728  0.09935420  0.17032148       0.003
   0.07096728  0.11354765  0.18451494       0.003
   0.07096728  0.12774111  0.19870840       0.003
   0.07096728  0.14193457  0.21290185       0.002
   0.08516074  0.08516074  0.17032148       0.002
   0.08516074  0.09935420  0.18451494       0.003
   0.08516074  0.11354765  0.19870840       0.003
   0.08516074  0.12774111  0.21290185       0.003
   0.09935420  0.09935420  0.19870840       0.002
   0.09935420  0.11354765  0.21290185       0.003
   0.09935420  0.12774111  0.22709531       0.002
   0.11354765  0.11354765  0.22709531       0.002
   0.02838691  0.02838691  0.02838691       0.001
   0.02838691  0.04258037  0.04258037       0.002
   0.02838691  0.05677383  0.05677383       0.002
   0.02838691  0.07096728  0.07096728       0.002
   0.02838691  0.08516074  0.08516074       0.002
   0.02838691  0.09935420  0.09935420       0.002
   0.02838691  0.11354765  0.11354765       0.002
   0.02838691  0.12774111  0.12774111       0.002
   0.02838691  0.14193457  0.14193457       0.002
   0.02838691  0.15612802  0.15612802       0.002
   0.02838691  0.17032148  0.17032148       0.002
   0.02838691  0.00000000 -0.00000000       0.000
   0.04258037  0.04258037  0.05677383       0.002
   0.04258037  0.05677383  0.07096728       0.003
   0.04258037  0.07096728  0.08516074       0.003
   0.04258037  0.08516074  0.09935420       0.003
   0.04258037  0.09935420  0.11354765       0.003
   0.04258037  0.11354765  0.12774111       0.003
   0.04258037  0.12774111  0.14193457       0.003
   0.04258037  0.14193457  0.15612802       0.003
   0.04258037  0.15612802  0.17032148       0.003
   0.04258037  0.17032148  0.18451494       0.002
   0.04258037 -0.01419346 -0.00000000       0.002
   0.05677383  0.05677383  0.08516074       0.002
   0.05677383  0.07096728  0.09935420       0.003
   0.05677383  0.08516074  0.11354765       0.003
   0.05677383  0.09935420  0.12774111       0.003
   0.05677383  0.11354765  0.14193457       0.003
   0.05677383  0.12774111  0.15612802       0.003
   0.05677383  0.14193457  0.17032148       0.003
   0.05677383  0.15612802  0.18451494       0.003
   0.05677383 -0.02838691  0.00000000       0.002
   0.05677383 -0.01419346  0.01419346       0.002
   0.07096728  0.07096728  0.11354765       0.002
   0.07096728  0.08516074  0.12774111       0.003
   0.07096728  0.09935420  0.14193457       0.003
   0.07096728  0.11354765  0.15612802       0.003
   0.07096728  0.12774111  0.17032148       0.003
   0.07096728  0.14193457  0.18451494       0.003
   0.07096728  0.15612802  0.19870840       0.002
   0.07096728 -0.04258037  0.00000000       0.002
   0.07096728 -0.02838691  0.01419346       0.003
   0.08516074  0.08516074  0.14193457       0.002
   0.08516074  0.09935420  0.15612802       0.003
   0.08516074  0.11354765  0.17032148       0.003
   0.08516074  0.12774111  0.18451494       0.003
   0.08516074  0.14193457  0.19870840       0.003
   0.08516074 -0.05677383  0.00000000       0.002
   0.08516074 -0.04258037  0.01419346       0.003
   0.08516074 -0.02838691  0.02838691       0.002
   0.09935420  0.09935420  0.17032148       0.002
   0.09935420  0.11354765  0.18451494       0.003
   0.09935420  0.12774111  0.19870840       0.003
   0.09935420  0.14193457  0.21290185       0.002
   0.09935420 -0.07096728  0.00000000       0.002
   0.09935420 -0.05677383  0.01419346       0.003
   0.09935420 -0.04258037  0.02838691       0.003
   0.11354765  0.11354765  0.19870840       0.002
   0.11354765  0.12774111  0.21290185       0.003
   0.11354765 -0.08516074  0.00000000       0.002
   0.11354765 -0.07096728  0.01419346       0.003
   0.11354765 -0.05677383  0.02838691       0.003
   0.11354765 -0.04258037  0.04258037       0.002
   0.12774111  0.12774111  0.22709531       0.001
   0.12774111 -0.09935420 -0.00000000       0.002
   0.12774111 -0.08516074  0.01419346       0.003
   0.12774111 -0.07096728  0.02838691       0.003
   0.12774111 -0.05677383  0.04258037       0.003
   0.14193457 -0.11354765  0.00000000       0.002
   0.14193457 -0.09935420  0.01419346       0.003
   0.14193457 -0.08516074  0.02838691       0.003
   0.14193457 -0.07096728  0.04258037       0.003
   0.14193457 -0.05677383  0.05677383       0.002
   0.15612802 -0.12774111  0.00000000       0.002
   0.15612802 -0.11354765  0.01419346       0.003
   0.15612802 -0.09935420  0.02838691       0.003
   0.15612802 -0.08516074  0.04258037       0.003
   0.15612802 -0.07096728  0.05677383       0.003
   0.17032148 -0.14193457 -0.00000000       0.002
   0.17032148 -0.12774111  0.01419346       0.003
   0.17032148 -0.11354765  0.02838691       0.003
   0.17032148 -0.09935420  0.04258037       0.003
   0.17032148 -0.08516074  0.05677383       0.003
   0.17032148 -0.07096728  0.07096728       0.002
   0.18451494 -0.15612802 -0.00000000       0.002
   0.18451494 -0.14193457  0.01419346       0.003
   0.18451494 -0.12774111  0.02838691       0.003
   0.18451494 -0.11354765  0.04258037       0.003
   0.18451494 -0.09935420  0.05677383       0.003
   0.18451494 -0.08516074  0.07096728       0.003
  -0.15612802 -0.15612802 -0.34064296       0.002
  -0.15612802 -0.14193457 -0.32644951       0.003
  -0.15612802 -0.12774111 -0.31225605       0.003
  -0.15612802 -0.11354765 -0.29806259       0.003
  -0.15612802 -0.09935420 -0.28386914       0.003
  -0.15612802 -0.08516074 -0.26967568       0.002
  -0.14193457 -0.14193457 -0.31225605       0.002
  -0.14193457 -0.12774111 -0.29806259       0.003
  -0.14193457 -0.11354765 -0.28386914       0.003
  -0.14193457 -0.09935420 -0.26967568       0.003
  -0.12774111 -0.12774111 -0.28386914       0.002
  -0.12774111 -0.11354765 -0.26967568       0.003
  -0.12774111 -0.09935420 -0.25548222       0.002
  -0.11354765 -0.11354765 -0.25548222       0.002
   0.05677383  0.05677383  0.05677383       0.001
   0.05677383  0.07096728  0.07096728       0.002
   0.05677383  0.08516074  0.08516074       0.002
   0.05677383  0.09935420  0.09935420       0.002
   0.05677383  0.11354765  0.11354765       0.002
   0.05677383  0.12774111  0.12774111       0.002
   0.05677383  0.14193457  0.14193457       0.002
   0.05677383  0.15612802  0.15612802       0.002
   0.05677383  0.17032148  0.17032148       0.002
   0.05677383  0.00000000  0.00000000       0.000
   0.07096728  0.07096728  0.08516074       0.002
   0.07096728  0.08516074  0.09935420       0.003
   0.07096728  0.09935420  0.11354765       0.003
   0.07096728  0.11354765  0.12774111       0.003
   0.07096728  0.12774111  0.14193457       0.003
   0.07096728  0.14193457  0.15612802       0.003
   0.07096728  0.15612802  0.17032148       0.003
   0.07096728  0.17032148  0.18451494       0.002
   0.07096728 -0.01419346  0.00000000       0.002
   0.08516074  0.08516074  0.11354765       0.002
   0.08516074  0.09935420  0.12774111       0.003
   0.08516074  0.11354765  0.14193457       0.003
   0.08516074  0.12774111  0.15612802       0.003
   0.08516074  0.14193457  0.17032148       0.003
   0.08516074  0.15612802  0.18451494       0.003
   0.08516074 -0.02838691 -0.00000000       0.002
   0.08516074 -0.01419346  0.01419346       0.002
   0.09935420  0.09935420  0.14193457       0.002
   0.09935420  0.11354765  0.15612802       0.003
   0.09935420  0.12774111  0.17032148       0.003
   0.09935420  0.14193457  0.18451494       0.003
   0.09935420  0.15612802  0.19870840       0.002
   0.09935420 -0.04258037  0.00000000       0.002
   0.09935420 -0.02838691  0.01419346       0.003
   0.11354765  0.11354765  0.17032148       0.002
   0.11354765  0.12774111  0.18451494       0.003
   0.11354765  0.14193457  0.19870840       0.003
   0.11354765 -0.05677383  0.00000000       0.002
   0.11354765 -0.04258037  0.01419346       0.003
   0.11354765 -0.02838691  0.02838691       0.002
   0.12774111  0.12774111  0.19870840       0.002
   0.12774111  0.14193457  0.21290185       0.002
   0.12774111 -0.07096728  0.00000000       0.002
   0.12774111 -0.05677383  0.01419346       0.003
   0.12774111 -0.04258037  0.02838691       0.003
   0.14193457 -0.08516074 -0.00000000       0.002
   0.14193457 -0.07096728  0.01419346       0.003
   0.14193457 -0.05677383  0.02838691       0.003
   0.14193457 -0.04258037  0.04258037       0.002
   0.15612802 -0.09935420 -0.00000000       0.002
   0.15612802 -0.08516074  0.01419346       0.003
   0.15612802 -0.07096728  0.02838691       0.003
   0.15612802 -0.05677383  0.04258037       0.003
   0.17032148 -0.11354765  0.00000000       0.002
   0.17032148 -0.09935420  0.01419346       0.003
   0.17032148 -0.08516074  0.02838691       0.003
   0.17032148 -0.07096728  0.04258037       0.003
   0.17032148 -0.05677383  0.05677383       0.002
   0.18451494 -0.12774111 -0.00000000       0.002
   0.18451494 -0.11354765  0.01419346       0.003
   0.18451494 -0.09935420  0.02838691       0.003
   0.18451494 -0.08516074  0.04258037       0.003
   0.18451494 -0.07096728  0.05677383       0.003
   0.19870840 -0.14193457 -0.00000000       0.002
   0.19870840 -0.12774111  0.01419346       0.003
   0.19870840 -0.11354765  0.02838691       0.003
   0.19870840 -0.09935420  0.04258037       0.003
   0.19870840 -0.08516074  0.05677383       0.003
   0.19870840 -0.07096728  0.07096728       0.002
  -0.14193457 -0.14193457 -0.34064296       0.002
  -0.14193457 -0.12774111 -0.32644951       0.003
  -0.14193457 -0.11354765 -0.31225605       0.003
  -0.14193457 -0.09935420 -0.29806259       0.003
  -0.14193457 -0.08516074 -0.28386914       0.003
  -0.12774111 -0.12774111 -0.31225605       0.002
  -0.12774111 -0.11354765 -0.29806259       0.003
  -0.12774111 -0.09935420 -0.28386914       0.003
  -0.12774111 -0.08516074 -0.26967568       0.002
  -0.11354765 -0.11354765 -0.28386914       0.002
  -0.11354765 -0.09935420 -0.26967568       0.003
  -0.09935420 -0.09935420 -0.25548222       0.001
   0.08516074  0.08516074  0.08516074       0.001
   0.08516074  0.09935420  0.09935420       0.002
   0.08516074  0.11354765  0.11354765       0.002
   0.08516074  0.12774111  0.12774111       0.002
   0.08516074  0.14193457  0.14193457       0.002
   0.08516074  0.15612802  0.15612802       0.002
   0.08516074  0.17032148  0.17032148       0.002
   0.08516074  0.00000000  0.00000000       0.000
   0.09935420  0.09935420  0.11354765       0.002
   0.09935420  0.11354765  0.12774111       0.003
   0.09935420  0.12774111  0.14193457       0.003
   0.09935420  0.14193457  0.15612802       0.003
   0.09935420  0.15612802  0.17032148       0.003
   0.09935420  0.17032148  0.18451494       0.002
   0.09935420 -0.01419346  0.00000000       0.002
   0.11354765  0.11354765  0.14193457       0.002
   0.11354765  0.12774111  0.15612802       0.003
   0.11354765  0.14193457  0.17032148       0.003
   0.11354765  0.15612802  0.18451494       0.003
   0.11354765 -0.02838691  0.00000000       0.002
   0.11354765 -0.01419346  0.01419346       0.002
   0.12774111  0.12774111  0.17032148       0.002
   0.12774111  0.14193457  0.18451494       0.003
   0.12774111  0.15612802  0.19870840       0.002
   0.12774111 -0.04258037  0.00000000       0.002
   0.12774111 -0.02838691  0.01419346       0.003
   0.14193457  0.14193457  0.19870840       0.002
   0.14193457 -0.05677383 -0.00000000       0.002
   0.14193457 -0.04258037  0.01419346       0.003
   0.14193457 -0.02838691  0.02838691       0.002
   0.15612802 -0.07096728 -0.00000000       0.002
   0.15612802 -0.05677383  0.01419346       0.003
   0.15612802 -0.04258037  0.02838691       0.003
   0.17032148 -0.08516074  0.00000000       0.002
   0.17032148 -0.07096728  0.01419346       0.003
   0.17032148 -0.05677383  0.02838691       0.003
   0.17032148 -0.04258037  0.04258037       0.002
   0.18451494 -0.09935420  0.00000000       0.002
   0.18451494 -0.08516074  0.01419346       0.003
   0.18451494 -0.07096728  0.02838691       0.003
   0.18451494 -0.05677383  0.04258037       0.003
   0.19870840 -0.11354765 -0.00000000       0.002
   0.19870840 -0.09935420  0.01419346       0.003
   0.19870840 -0.08516074  0.02838691       0.003
   0.19870840 -0.07096728  0.04258037       0.003
   0.19870840 -0.05677383  0.05677383       0.002
   0.21290185 -0.12774111  0.00000000       0.002
   0.21290185 -0.11354765  0.01419346       0.003
   0.21290185 -0.09935420  0.02838691       0.003
   0.21290185 -0.08516074  0.04258037       0.003
   0.21290185 -0.07096728  0.05677383       0.003
  -0.12774111 -0.12774111 -0.34064296       0.002
  -0.12774111 -0.11354765 -0.32644951       0.003
  -0.12774111 -0.09935420 -0.31225605       0.003
  -0.12774111 -0.08516074 -0.29806259       0.003
  -0.12774111 -0.07096728 -0.28386914       0.002
  -0.11354765 -0.11354765 -0.31225605       0.002
  -0.11354765 -0.09935420 -0.29806259       0.003
  -0.11354765 -0.08516074 -0.28386914       0.003
  -0.09935420 -0.09935420 -0.28386914       0.002
  -0.09935420 -0.08516074 -0.26967568       0.002
   0.11354765  0.11354765  0.11354765       0.001
   0.11354765  0.12774111  0.12774111       0.002
   0.11354765  0.14193457  0.14193457       0.002
   0.11354765  0.15612802  0.15612802       0.002
   0.11354765  0.17032148  0.17032148       0.002
   0.11354765 -0.00000000 -0.00000000       0.000
   0.12774111  0.12774111  0.14193457       0.002
   0.12774111  0.14193457  0.15612802       0.003
   0.12774111  0.15612802  0.17032148       0.003
   0.12774111  0.17032148  0.18451494       0.002
   0.12774111 -0.01419346  0.00000000       0.002
   0.14193457  0.14193457  0.17032148       0.002
   0.14193457  0.15612802  0.18451494       0.003
   0.14193457 -0.02838691 -0.00000000       0.002
   0.14193457 -0.01419346  0.01419346       0.002
   0.15612802  0.15612802  0.19870840       0.001
   0.15612802 -0.04258037  0.00000000       0.002
   0.15612802 -0.02838691  0.01419346       0.003
   0.17032148 -0.05677383 -0.00000000       0.002
   0.17032148 -0.04258037  0.01419346       0.003
   0.17032148 -0.02838691  0.02838691       0.002
   0.18451494 -0.07096728  0.00000000       0.002
   0.18451494 -0.05677383  0.01419346       0.003
   0.18451494 -0.04258037  0.02838691       0.003
   0.19870840 -0.08516074 -0.00000000       0.002
   0.19870840 -0.07096728  0.01419346       0.003
   0.19870840 -0.05677383  0.02838691       0.003
   0.19870840 -0.04258037  0.04258037       0.002
   0.21290185 -0.09935420 -0.00000000       0.002
   0.21290185 -0.08516074  0.01419346       0.003
   0.21290185 -0.07096728  0.02838691       0.003
   0.21290185 -0.05677383  0.04258037       0.003
   0.22709531 -0.11354765  0.00000000       0.002
   0.22709531 -0.09935420  0.01419346       0.003
   0.22709531 -0.08516074  0.02838691       0.003
   0.22709531 -0.07096728  0.04258037       0.003
   0.22709531 -0.05677383  0.05677383       0.002
  -0.11354765 -0.11354765 -0.34064296       0.002
  -0.11354765 -0.09935420 -0.32644951       0.003
  -0.11354765 -0.08516074 -0.31225605       0.003
  -0.11354765 -0.07096728 -0.29806259       0.003
  -0.09935420 -0.09935420 -0.31225605       0.002
  -0.09935420 -0.08516074 -0.29806259       0.003
  -0.09935420 -0.07096728 -0.28386914       0.002
  -0.08516074 -0.08516074 -0.28386914       0.002
   0.14193457  0.14193457  0.14193457       0.001
   0.14193457  0.15612802  0.15612802       0.002
   0.14193457  0.17032148  0.17032148       0.002
   0.14193457 -0.00000000  0.00000000       0.000
   0.15612802  0.15612802  0.17032148       0.002
   0.15612802  0.17032148  0.18451494       0.002
   0.15612802 -0.01419346  0.00000000       0.002
   0.17032148 -0.02838691 -0.00000000       0.002
   0.17032148 -0.01419346  0.01419346       0.002
   0.18451494 -0.04258037  0.00000000       0.002
   0.18451494 -0.02838691  0.01419346       0.003
   0.19870840 -0.05677383 -0.00000000       0.002
   0.19870840 -0.04258037  0.01419346       0.003
   0.19870840 -0.02838691  0.02838691       0.002
   0.21290185 -0.07096728  0.00000000       0.002
   0.21290185 -0.05677383  0.01419346       0.003
   0.21290185 -0.04258037  0.02838691       0.003
   0.22709531 -0.08516074 -0.00000000       0.002
   0.22709531 -0.07096728  0.01419346       0.003
   0.22709531 -0.05677383  0.02838691       0.003
   0.22709531 -0.04258037  0.04258037       0.002
   0.24128877 -0.09935420 -0.00000000       0.002
   0.24128877 -0.08516074  0.01419346       0.003
   0.24128877 -0.07096728  0.02838691       0.003
   0.24128877 -0.05677383  0.04258037       0.003
  -0.09935420 -0.09935420 -0.34064296       0.002
  -0.09935420 -0.08516074 -0.32644951       0.003
  -0.09935420 -0.07096728 -0.31225605       0.003
  -0.09935420 -0.05677383 -0.29806259       0.002
  -0.08516074 -0.08516074 -0.31225605       0.002
  -0.08516074 -0.07096728 -0.29806259       0.003
  -0.07096728 -0.07096728 -0.28386914       0.001
   0.17032148  0.17032148  0.17032148       0.001
   0.17032148 -0.00000000 -0.00000000       0.000
   0.18451494 -0.01419346 -0.00000000       0.002
   0.19870840 -0.02838691  0.00000000       0.002
   0.19870840 -0.01419346  0.01419346       0.002
   0.21290185 -0.04258037  0.00000000       0.002
   0.21290185 -0.02838691  0.01419346       0.003
   0.22709531 -0.05677383  0.00000000       0.002
   0.22709531 -0.04258037  0.01419346       0.003
   0.22709531 -0.02838691  0.02838691       0.002
   0.24128877 -0.07096728 -0.00000000       0.002
   0.24128877 -0.05677383  0.01419346       0.003
   0.24128877 -0.04258037  0.02838691       0.003
   0.25548222 -0.08516074 -0.00000000       0.002
   0.25548222 -0.07096728  0.01419346       0.003
   0.25548222 -0.05677383  0.02838691       0.003
   0.25548222 -0.04258037  0.04258037       0.002
  -0.08516074 -0.08516074 -0.34064296       0.002
  -0.08516074 -0.07096728 -0.32644951       0.003
  -0.08516074 -0.05677383 -0.31225605       0.003
[...]
  band No.  band energies     occupation 
      1       2.3371      2.00000
      2       2.3628      2.00000
      3       5.2156      2.00000
      4       6.4933      0.00000
      5       6.7706      0.00000
      6      14.1287      0.00000
      7      14.9759      0.00000
      8      16.3667      0.00000

 k-point   427 :      -0.3200    0.3200    0.3200
  band No.  band energies     occupation 
      1       2.2824      2.00000
      2       2.9479      2.00000
      3       5.4169      2.00000
      4       5.4169      2.00000
      5       6.2068      0.00000
      6       8.9304      0.00000
      7      20.4775      0.00000
      8      20.4775      0.00000

 k-point   428 :      -0.3600    0.3600    0.3200
  band No.  band energies     occupation 
      1       2.3138      2.00000
      2       2.7269      2.00000
      3       5.5484      2.00000
      4       5.6113      2.00000
      5       6.4171      0.00000
      6       9.7420      0.00000
      7      19.3169      0.00000
      8      19.7338      0.00000

 k-point   429 :      -0.4000    0.4000    0.3200
  band No.  band energies     occupation 
      1       2.3163      2.00000
      2       2.5488      2.00000
      3       5.5841      2.00000
      4       5.7649      2.00000
      5       6.6828      0.00000
      6      10.7218      0.00000
      7      17.8467      0.00000
      8      19.1324      0.00000

 k-point   430 :      -0.3600    0.4000    0.3200
  band No.  band energies     occupation 
      1       2.2913      2.00000
      2       2.5298      2.00000
      3       5.6533      2.00000
      4       5.8613      2.00000
      5       6.5903      0.00000
      6      10.6490      0.00000
      7      18.6030      0.00000
      8      18.7322      0.00000

 k-point   431 :      -0.4400    0.4400    0.3200
  band No.  band energies     occupation 
      1       2.2971      2.00000
      2       2.4369      2.00000
      3       5.5864      2.00000
      4       5.8642      2.00000
      5       6.9083      0.00000
      6      11.8321      0.00000
      7      16.3650      0.00000
      8      18.7052      0.00000

 k-point   432 :      -0.4000    0.4400    0.3200
  band No.  band energies     occupation 
      1       2.2614      2.00000
      2       2.3798      2.00000
      3       5.6806      2.00000
      4       6.0546      0.45440
      5       6.7900      0.00000
      6      11.7045      0.00000
      7      17.2848      0.00000
      8      18.1763      0.00000

 k-point   433 :      -0.4800    0.4800    0.3200
  band No.  band energies     occupation 
      1       2.2694      2.00000
      2       2.3953      2.00000
      3       5.5831      2.00000
      4       5.9117      1.99900
      5       7.0351      0.00000
      6      12.9153      0.00000
      7      15.0899      0.00000
      8      18.4822      0.00000

 k-point   434 :      -0.4400    0.4800    0.3200
  band No.  band energies     occupation 
      1       2.2282      2.00000
      2       2.2969      2.00000
      3       5.6855      2.00000
      4       6.1641      0.00012
      5       6.9455      0.00000
      6      12.8550      0.00000
      7      15.9041      0.00000
      8      17.8515      0.00000

 k-point   435 :      -0.4000    0.4800    0.3200
  band No.  band energies     occupation 
      1       2.2186      2.00000
      2       2.2590      2.00000
      3       5.6935      2.00000
      4       6.3303      0.00000
      5       6.8629      0.00000
      6      12.8134      0.00000
      7      16.6987      0.00000
      8      17.0994      0.00000

 k-point   436 :      -0.4800   -0.4800    0.3200
  band No.  band energies     occupation 
      1       2.2089      2.00000
      2       2.2762      2.00000
      3       5.6855      2.00000
      4       6.1990      0.00000
      5       7.0037      0.00000
      6      13.6820      0.00000
      7      14.9954      0.00000
      8      17.7398      0.00000

 k-point   437 :      -0.4400   -0.4800    0.3200
  band No.  band energies     occupation 
      1       2.1856      2.00000
      2       2.2063      2.00000
      3       5.6937      2.00000
      4       6.4904      0.00000
      5       6.8939      0.00000
      6      13.9655      0.00000
      7      15.5584      0.00000
      8      16.7649      0.00000

 k-point   438 :      -0.4400   -0.4400    0.3200
  band No.  band energies     occupation 
      1       2.1732      2.00000
      2       2.1732      2.00000
      3       5.6932      2.00000
      4       6.7415      0.00000
      5       6.7415      0.00000
      6      15.0232      0.00000
      7      15.0232      0.00000
      8      16.1138      0.00000

 k-point   439 :      -0.3600    0.3600    0.3600
  band No.  band energies     occupation 
      1       2.2597      2.00000
      2       2.5154      2.00000
      3       5.8491      2.00000
      4       5.8491      2.00000
      5       6.4858      0.00000
      6      10.5680      0.00000
      7      18.9611      0.00000
      8      18.9611      0.00000

 k-point   440 :      -0.4000    0.4000    0.3600
  band No.  band energies     occupation 
      1       2.2007      2.00000
      2       2.3401      2.00000
      3       5.9935      1.67262
      4       6.0500      0.53567
      5       6.6690      0.00000
      6      11.5394      0.00000
      7      17.9835      0.00000
      8      18.3330      0.00000

 k-point   441 :      -0.4400    0.4400    0.3600
  band No.  band energies     occupation 
      1       2.1525      2.00000
      2       2.2174      2.00000
      3       6.0342      0.86369
      4       6.1880      0.00001
      5       6.8774      0.00000
      6      12.6376      0.00000
      7      16.7185      0.00000
      8      17.8845      0.00000

 k-point   442 :      -0.4000    0.4400    0.3600
  band No.  band energies     occupation 
      1       2.1251      2.00000
      2       2.1921      2.00000
      3       6.0960      0.05478
      4       6.3089      0.00000
      5       6.8007      0.00000
      6      12.5576      0.00000
      7      17.3919      0.00000
      8      17.5111      0.00000

 k-point   443 :      -0.4800    0.4800    0.3600
  band No.  band energies     occupation 
      1       2.1202      2.00000
      2       2.1602      2.00000
      3       6.0427      0.68107
      4       6.2569      0.00000
      5       7.0045      0.00000
      6      13.7636      0.00000
      7      15.4752      0.00000
      8      17.6495      0.00000

 k-point   444 :      -0.4400    0.4800    0.3600
  band No.  band energies     occupation 
      1       2.0752      2.00000
      2       2.0995      2.00000
      3       6.1244      0.00645
      4       6.4765      0.00000
      5       6.9253      0.00000
      6      13.6734      0.00000
      7      16.2836      0.00000
      8      17.1251      0.00000

 k-point   445 :      -0.4800   -0.4800    0.3600
  band No.  band energies     occupation 
      1       2.0553      2.00000
      2       2.0706      2.00000
      3       6.1307      0.00371
      4       6.5306      0.00000
      5       6.9763      0.00000
      6      14.5682      0.00000
      7      15.3613      0.00000
      8      17.0055      0.00000

 k-point   446 :      -0.4400   -0.4800    0.3600
  band No.  band energies     occupation 
      1       2.0354      2.00000
      2       2.0378      2.00000
      3       6.1393      0.00166
      4       6.7181      0.00000
      5       6.8963      0.00000
      6      14.7623      0.00000
      7      15.8429      0.00000
      8      16.3128      0.00000

 k-point   447 :      -0.4000    0.4000    0.4000
  band No.  band energies     occupation 
      1       2.0929      2.00000
      2       2.1699      2.00000
      3       6.3015      0.00000
      4       6.3015      0.00000
      5       6.7139      0.00000
      6      12.4671      0.00000
      7      17.6794      0.00000
      8      17.6794      0.00000

 k-point   448 :      -0.4400    0.4400    0.4000
  band No.  band energies     occupation 
      1       2.0145      2.00000
      2       2.0482      2.00000
      3       6.4275      0.00000
      4       6.4815      0.00000
      5       6.8580      0.00000
      6      13.4978      0.00000
      7      16.8946      0.00000
      8      17.2100      0.00000

 k-point   449 :      -0.4800    0.4800    0.4000
  band No.  band energies     occupation 
      1       1.9743      2.00000
      2       1.9844      2.00000
      3       6.4535      0.00000
      4       6.5740      0.00000
      5       6.9798      0.00000
      6      14.5735      0.00000
      7      15.8721      0.00000
      8      16.9627      0.00000

 k-point   450 :      -0.4400    0.4800    0.4000
  band No.  band energies     occupation 
      1       1.9453      2.00000
      2       1.9566      2.00000
      3       6.5055      0.00000
      4       6.7031      0.00000
      5       6.9282      0.00000
      6      14.5034      0.00000
      7      16.4728      0.00000
      8      16.5987      0.00000

 k-point   451 :      -0.4800   -0.4800    0.4000
  band No.  band energies     occupation 
      1       1.9231      2.00000
      2       1.9238      2.00000
      3       6.5183      0.00000
      4       6.7926      0.00000
      5       6.9552      0.00000
      6      15.3667      0.00000
      7      15.7370      0.00000
      8      16.4321      0.00000

 k-point   452 :      -0.4400    0.4400    0.4400
  band No.  band energies     occupation 
      1       1.9141      2.00000
      2       1.9295      2.00000
      3       6.6979      0.00000
      4       6.6979      0.00000
      5       6.8755      0.00000
      6      14.4052      0.00000
      7      16.7228      0.00000
      8      16.7228      0.00000

 k-point   453 :      -0.4800    0.4800    0.4400
  band No.  band energies     occupation 
      1       1.8630      2.00000
      2       1.8670      2.00000
      3       6.7691      0.00000
      4       6.8114      0.00000
      5       6.9627      0.00000
      6      15.3090      0.00000
      7      16.1660      0.00000
      8      16.4651      0.00000

 k-point   454 :      -0.4800   -0.4800    0.4400
  band No.  band energies     occupation 
      1       1.8357      2.00000
      2       1.8357      2.00000
      3       6.8022      0.00000
      4       6.9420      0.00000
      5       6.9420      0.00000
      6      15.9673      0.00000
      7      15.9673      0.00000
      8      16.1342      0.00000

 k-point   455 :      -0.4800    0.4800    0.4800
  band No.  band energies     occupation 
      1       1.8053      2.00000
      2       1.8064      2.00000
      3       6.9374      0.00000
      4       6.9374      0.00000
      5       6.9592      0.00000
      6      15.8913      0.00000
      7      16.2011      0.00000
      8      16.2011      0.00000


--------------------------------------------------------------------------------------------------------


 soft charge-density along one line, spin component           1
         0         1         2         3         4         5         6         7         8         9
 total charge-density along one line
 
 pseudopotential strength for first ion, spin component:           1
 -4.960  -0.000  -0.000  -0.000  -0.000  -5.510  -0.000  -0.000
 -0.000  -4.960   0.000  -0.000  -0.000  -0.000  -5.510   0.000
 -0.000   0.000  -4.978   0.000   0.000  -0.000   0.000  -5.527
 -0.000  -0.000   0.000  -4.960   0.000  -0.000  -0.000   0.000
 -0.000  -0.000   0.000   0.000  -4.978  -0.000  -0.000   0.000
 -5.510  -0.000  -0.000  -0.000  -0.000  -6.017  -0.000  -0.000
 -0.000  -5.510   0.000  -0.000  -0.000  -0.000  -6.017   0.000
 -0.000   0.000  -5.527   0.000   0.000  -0.000   0.000  -6.034
 -0.000  -0.000   0.000  -5.510   0.000  -0.000  -0.000   0.000
 -0.000  -0.000   0.000   0.000  -5.527  -0.000  -0.000   0.000
  0.000   0.000   0.000   0.000   0.000   0.000   0.000   0.000
  0.000   0.000   0.000   0.000   0.000   0.000   0.000   0.000
 -0.000  -0.000   0.000  -0.000   0.000  -0.000  -0.000   0.000
 -0.000  -0.000  -0.000  -0.000  -0.000  -0.000  -0.000  -0.000
 -0.000  -0.000   0.000   0.000  -0.000  -0.000  -0.000   0.000
 -0.000  -0.000   0.000  -0.000  -0.000  -0.000  -0.000   0.000
 -0.000  -0.000  -0.000  -0.000   0.000  -0.000  -0.000  -0.000
 -0.000  -0.000   0.000  -0.000  -0.000  -0.000  -0.000   0.000
 total augmentation occupancy for first ion, spin component:           1
  1.664   0.000  -0.000  -0.000  -0.000  -0.725  -0.000   0.000   0.000   0.000   0.000   0.000   0.000   0.000   0.000   0.000
  0.000   1.664  -0.000   0.000   0.000  -0.000  -0.725  -0.000  -0.000  -0.000   0.000   0.000   0.000   0.000   0.000   0.000
 -0.000  -0.000   2.308   0.000   0.000   0.000   0.000  -1.343  -0.000  -0.000   0.000  -0.000   0.000   0.000   0.000   0.000
 -0.000   0.000   0.000   1.664  -0.000   0.000  -0.000  -0.000  -0.725   0.000   0.000   0.000   0.000   0.000   0.000   0.000
 -0.000   0.000  -0.000   0.000   2.308   0.000  -0.000   0.000   0.000  -1.343   0.000   0.000   0.000   0.000   0.000   0.000
 -0.725  -0.000   0.000   0.000  -0.000   1.208  -0.000  -0.000  -0.000  -0.000  -0.000  -0.000   0.000   0.000   0.000   0.000
 -0.000  -0.725   0.000  -0.000  -0.000  -0.000   1.208   0.000   0.000   0.000   0.000   0.000   0.000   0.000   0.000   0.000
  0.000  -0.000  -1.343  -0.000  -0.000  -0.000   0.000   1.609   0.000  -0.000  -0.000   0.000   0.000   0.000   0.000   0.000
  0.000  -0.000  -0.000  -0.725   0.000  -0.000   0.000  -0.000   1.208  -0.000   0.000   0.000   0.000   0.000   0.000   0.000
  0.000  -0.000   0.000   0.000  -1.343  -0.000   0.000  -0.000  -0.000   1.609   0.000  -0.000   0.000   0.000   0.000   0.000
 -0.000   0.000   0.000  -0.000  -0.000  -0.000   0.000  -0.000   0.000   0.000   2.363  -0.263   0.000   0.000   0.000   0.000
  0.000   0.000  -0.000   0.000   0.000  -0.000   0.000   0.000   0.000  -0.000  -0.263   0.033   0.000   0.000   0.000   0.000
  0.000   0.000   0.000   0.000   0.000   0.000   0.000   0.000   0.000   0.000   0.000   0.000   0.291  -0.000   0.000  -0.025
  0.000   0.000   0.000   0.000   0.000   0.000   0.000   0.000   0.000   0.000   0.000   0.000  -0.000   0.291   0.000   0.000
  0.000   0.000   0.000   0.000   0.000   0.000   0.000   0.000   0.000   0.000   0.000   0.000   0.000   0.000   0.291  -0.000
  0.000   0.000   0.000   0.000   0.000   0.000   0.000   0.000   0.000   0.000   0.000   0.000  -0.025  -0.000  -0.000   0.002
  0.000   0.000   0.000   0.000   0.000   0.000   0.000   0.000   0.000   0.000   0.000   0.000   0.000  -0.025   0.000  -0.000
  0.000   0.000   0.000   0.000   0.000   0.000   0.000   0.000   0.000   0.000   0.000   0.000  -0.000   0.000  -0.025  -0.000


------------------------ aborting loop because EDIFF is reached ----------------------------------------


    CHARGE:  cpu time      0.0400: real time      0.0403
    FORLOC:  cpu time      0.0002: real time      0.0005
    FORNL :  cpu time      0.0107: real time      0.0109
    STRESS:  cpu time      0.1151: real time      0.1162
    FORCOR:  cpu time      0.0047: real time      0.0048
    FORHAR:  cpu time      0.0013: real time      0.0014
    MIXING:  cpu time      0.0003: real time      0.0003
    OFIELD:  cpu time      0.0001: real time      0.0001

  FORCE on cell =-STRESS in cart. coord.  units (eV):
  Direction    XX          YY          ZZ          XY          YZ          ZX
  --------------------------------------------------------------------------------------
  Alpha Z    61.75600    61.75600    61.75600
  Ewald    -198.34574  -198.34574  -198.34574    -0.00000     0.00000    -0.00000
  Hartree    31.15290    31.15290    31.15290    -0.00000    -0.00000    -0.00000
  E(xc)     -38.82214   -38.82214   -38.82214    -0.00000    -0.00000    -0.00000
  Local      59.14213    59.14213    59.14213    -0.00001    -0.00001    -0.00001
  n-local   -29.17546   -26.63968   -26.12236     0.22151    -1.41511    -1.35289
  augment    38.02994    38.02994    38.02994     0.00001     0.00001     0.00001
  Kinetic    73.50040    74.66802    71.80056     1.08815     2.43334     0.71537
  Fock        0.00000     0.00000     0.00000     0.00000     0.00000     0.00000
  -------------------------------------------------------------------------------------
  Total      -1.07642    -1.07642    -1.07642     0.00000    -0.00000    -0.00000
  in kB    -154.10155  -154.10155  -154.10155     0.00000    -0.00000    -0.00000
  external pressure =     -154.10 kB  Pullay stress =        0.00 kB


 VOLUME and BASIS-vectors are now :
 -----------------------------------------------------------------------------
  energy-cutoff  :      500.00
  volume of cell :       11.19
      direct lattice vectors                 reciprocal lattice vectors
    -1.409100000  1.409100000  1.409100000     0.000000000  0.354836420  0.354836420
     1.409100000 -1.409100000  1.409100000     0.354836420  0.000000000  0.354836420
     1.409100000  1.409100000 -1.409100000     0.354836420  0.354836420  0.000000000

  length of vectors
     2.440632793  2.440632793  2.440632793     0.501814478  0.501814478  0.501814478


 FORCES acting on ions
    electron-ion (+dipol)            ewald-force                    non-local-force                 convergence-correction
 -----------------------------------------------------------------------------------------------
   -.365E-14 0.747E-14 0.126E-14   -.211E-15 -.251E-14 -.168E-15   -.282E-24 0.132E-24 -.287E-24   0.107E-13 -.308E-15 0.749E-14
 -----------------------------------------------------------------------------------------------
   -.365E-14 0.747E-14 0.126E-14   -.211E-15 -.251E-14 -.168E-15   -.282E-24 0.132E-24 -.287E-24   0.107E-13 -.308E-15 0.749E-14
 
 
 POSITION                                       TOTAL-FORCE (eV/Angst)
 -----------------------------------------------------------------------------------
      0.00000      0.00000      0.00000         0.000000     -0.000000      0.000000
 -----------------------------------------------------------------------------------
    total drift:                                0.000000      0.000000      0.000000


--------------------------------------------------------------------------------------------------------



  FREE ENERGIE OF THE ION-ELECTRON SYSTEM (eV)
  ---------------------------------------------------
  free  energy   TOTEN  =        -7.72790141 eV

  energy  without entropy=       -7.72336374  energy(sigma->0) =       -7.72563258
 


--------------------------------------------------------------------------------------------------------


    POTLOK:  cpu time      0.0083: real time      0.0083


--------------------------------------------------------------------------------------------------------


     LOOP+:  cpu time     11.1417: real time     11.5984
    4ORBIT:  cpu time      0.0000: real time      0.0000

 total amount of memory used by VASP MPI-rank0    33873. kBytes
=======================================================================

   base      :      30000. kBytes
   nonl-proj :       3145. kBytes
   fftplans  :         85. kBytes
   grid      :        104. kBytes
   one-center:         15. kBytes
   wavefun   :        524. kBytes
 
  
  
 General timing and accounting informations for this job:
 ========================================================
  
                  Total CPU time used (sec):       12.051
                            User time (sec):       11.246
                          System time (sec):        0.805
                         Elapsed time (sec):       17.902
  
                   Maximum memory used (kb):      132004.
                   Average memory used (kb):          N/A
  
                          Minor page faults:        13745
                          Major page faults:         1437
                 Voluntary context switches:          863
