 vasp.6.3.0 20Jan22 (build Oct 14 2024 11:24:38) complex                        
  
 executed on             LinuxIFC date 2025.05.01  23:19:45
 running on   64 total cores
 distrk:  each k-point on   64 cores,    1 groups
 distr:  one band on NCORE=   8 cores,    8 groups


--------------------------------------------------------------------------------------------------------


 INCAR:
   ISTART = 0            (Read existing wavefunction
   ISPIN = 1            (Non-Spin polarised DFT)
   LREAL = .FALSE.       (Projection operators: automatic)
   ENCUT = 500          (Cut-off energy for plane wave basis set, in eV)
   PREC = Accurate     (Precision level)
   LWAVE = .FALSE.       (Write WAVECAR or not)
   LCHARG = .FALSE.       (Write CHGCAR or not)
   NSW = 0
   IBRION = -1
   ISMEAR = 0            (gaussian smearing method)
   SIGMA = 0.05         (please check the width of the smearing)
   NELM = 60           (Max electronic SCF steps)
   EDIFF = 1E-06        (SCF energy convergence
   NCORE = 8             (square root of total cores)

 POTCAR:    PAW_PBE Sb 06Sep2000                  
 POTCAR:    PAW_PBE Sb 06Sep2000                  
   VRHFIN =Sb: s2p3                                                                                 
   LEXCH  = PE                                                                                      
   EATOM  =   149.9515 eV,   11.0211 Ry                                                             
                                                                                                    
   TITEL  = PAW_PBE Sb 06Sep2000                                                                    
   LULTRA =        F    use ultrasoft PP ?                                                          
   IUNSCR =        1    unscreen: 0-lin 1-nonlin 2-no                                               
   RPACOR =    2.200    partial core radius                                                         
   POMASS =  121.750; ZVAL   =    5.000    mass and valenz                                          
   RCORE  =    2.300    outmost cutoff radius                                                       
   RWIGS  =    2.980; RWIGS  =    1.577    wigner-seitz radius (au A)                               
   ENMAX  =  172.069; ENMIN  =  129.052 eV                                                          
   ICORE  =        3    local potential                                                             
   LCOR   =        T    correct aug charges                                                         
   LPAW   =        T    paw PP                                                                      
   EAUG   =  380.513                                                                                
   DEXC   =    0.000                                                                                
   RMAX   =    2.346    core radius for proj-oper                                                   
   RAUG   =    1.300    factor for augmentation sphere                                              
   RDEP   =    2.360    radius for radial grids                                                     
   RDEPT  =    2.192    core radius for aug-charge                                                  
                                                                                                    
   Atomic configuration                                                                             
   13 entries                                                                                       
     n  l   j            E        occ.                                                              
     1  0  0.50    -30298.2797   2.0000                                                             
     2  0  0.50     -4610.2252   2.0000                                                             
     2  1  1.50     -4138.3407   6.0000                                                             
     3  0  0.50      -903.8815   2.0000                                                             
     3  1  1.50      -750.1337   6.0000                                                             
     3  2  2.50      -515.7092  10.0000                                                             
     4  0  0.50      -148.8034   2.0000                                                             
     4  1  1.50      -101.7581   6.0000                                                             
     4  2  2.50       -33.5048  10.0000                                                             
     5  0  0.50       -12.8298   2.0000                                                             
     5  1  0.50        -4.8276   3.0000                                                             
     5  2  1.50        -4.0817   0.0000                                                             
     4  3  2.50        -4.0817   0.0000                                                             
   Description                                                                                      
     l       E           TYP  RCUT    TYP  RCUT                                                     
     0    -12.8297861     23  2.300                                                                 
     0     13.6058260     23  2.300                                                                 
     1     -4.8275512     23  2.300                                                                 
     1     -0.7245443     23  2.300                                                                 
     2     -4.0817478     23  2.300                                                                 
     3     -1.3605826     23  2.300                                                                 
  local pseudopotential read in
  partial core-charges read in
  partial kinetic energy density read in
  atomic valenz-charges read in
  non local Contribution for L=           0  read in
    real space projection operators read in
  non local Contribution for L=           0  read in
    real space projection operators read in
  non local Contribution for L=           1  read in
    real space projection operators read in
  non local Contribution for L=           1  read in
    real space projection operators read in
  non local Contribution for L=           2  read in
    real space projection operators read in
    PAW grid and wavefunctions read in
 
   number of l-projection  operators is LMAX  =           5
   number of lm-projection operators is LMMAX =          13
 
  PAW_PBE Sb 06Sep2000                  :
 energy of atom  1       EATOM= -149.9515
 kinetic energy error for atom=    0.0005 (will be added to EATOM!!)
 
 
 POSCAR: Sb R-3m
  positions in direct lattice
  No initial velocities read in
 exchange correlation table for  LEXCH =        8
   RHO(1)=    0.500       N(1)  =     2000
   RHO(2)=  100.500       N(2)  =     4000
 


--------------------------------------------------------------------------------------------------------


 ion  position               nearest neighbor table
   1  0.234  0.234  0.234-   2 2.96   2 2.96   2 2.96   2 3.41   2 3.41   2 3.41
   2  0.766  0.766  0.766-   1 2.96   1 2.96   1 2.96   1 3.41   1 3.41   1 3.41
 
  LATTYP: Found a trigonal (rhomboedric) cell.
 ALAT       =     4.5770930012
 COS(alpha) =     0.5424002387
  
  Lattice vectors:
  
 A1 = (   2.1893622912,   1.2640289082,   3.8155869823)
 A2 = (  -2.1893622912,   1.2640289082,   3.8155869823)
 A3 = (   0.0000000000,  -2.5280578163,   3.8155869823)


Analysis of symmetry for initial positions (statically):
=====================================================================
 Subroutine PRICEL returns:
 Original cell was already a primitive cell.
 

 Routine SETGRP: Setting up the symmetry group for a 
 trigonal (rhombohedral) supercell.


 Subroutine GETGRP returns: Found 12 space group operations
 (whereof 12 operations were pure point group operations)
 out of a pool of 12 trial point group operations.


The static configuration has the point symmetry D_3d.


Analysis of symmetry for dynamics (positions and initial velocities):
=====================================================================
 Subroutine PRICEL returns:
 Original cell was already a primitive cell.
 

 Routine SETGRP: Setting up the symmetry group for a 
 trigonal (rhombohedral) supercell.


 Subroutine GETGRP returns: Found 12 space group operations
 (whereof 12 operations were pure point group operations)
 out of a pool of 12 trial point group operations.


The dynamic configuration has the point symmetry D_3d.


 Subroutine INISYM returns: Found 12 space group operations
 (whereof 12 operations are pure point group operations),
 and found     1 'primitive' translations


----------------------------------------------------------------------------------------

                                     Primitive cell                                     

  volume of cell :      63.3559

  direct lattice vectors                    reciprocal lattice vectors
     2.189362291  1.264028908  3.815586982     0.228377004  0.131853525  0.087360958
    -2.189362291  1.264028908  3.815586982    -0.228377004  0.131853525  0.087360958
     0.000000000 -2.528057816  3.815586982     0.000000000 -0.263707049  0.087360958

  length of vectors
     4.577093001  4.577093001  4.577093001     0.277800908  0.277800908  0.277800908

  position of ions in fractional coordinates (direct lattice)
     0.233624448  0.233624448  0.233624448
     0.766375552  0.766375552  0.766375552

  ion indices of the primitive-cell ions
   primitive index   ion index
                 1           1
                 2           2

----------------------------------------------------------------------------------------

 
 
 KPOINTS: K-Spacing Value to Generate K-Mesh: 0.02

Automatic generation of k-mesh.
 Grid dimensions read from file:
 generate k-points for:   14   14   14

 Generating k-lattice:

  Cartesian coordinates                     Fractional coordinates (reciprocal lattice)
     0.016312643  0.009418109  0.006240068     0.071428571  0.000000000  0.000000000
    -0.016312643  0.009418109  0.006240068     0.000000000  0.071428571  0.000000000
     0.000000000 -0.018836218  0.006240068     0.000000000  0.000000000  0.071428571

  Length of vectors
     0.019842922  0.019842922  0.019842922

  Shift w.r.t. Gamma in fractional coordinates (k-lattice)
     0.500000000  0.500000000  0.500000000

 
 Subroutine IBZKPT returns following result:
 ===========================================
 
 Found    280 irreducible k-points:
 
 Following reciprocal coordinates:
            Coordinates               Weight
  0.035714  0.035714  0.035714      2.000000
  0.107143  0.035714  0.035714      6.000000
  0.178571  0.035714  0.035714      6.000000
  0.250000  0.035714  0.035714      6.000000
  0.321429  0.035714  0.035714      6.000000
  0.392857  0.035714  0.035714      6.000000
  0.464286  0.035714  0.035714      6.000000
 -0.464286  0.035714  0.035714      6.000000
 -0.392857  0.035714  0.035714      6.000000
 -0.321429  0.035714  0.035714      6.000000
 -0.250000  0.035714  0.035714      6.000000
 -0.178571  0.035714  0.035714      6.000000
 -0.107143  0.035714  0.035714      6.000000
 -0.035714  0.035714  0.035714      6.000000
  0.107143  0.107143  0.035714      6.000000
  0.178571  0.107143  0.035714     12.000000
  0.250000  0.107143  0.035714     12.000000
  0.321429  0.107143  0.035714     12.000000
  0.392857  0.107143  0.035714     12.000000
  0.464286  0.107143  0.035714     12.000000
 -0.464286  0.107143  0.035714     12.000000
 -0.392857  0.107143  0.035714     12.000000
 -0.321429  0.107143  0.035714     12.000000
 -0.250000  0.107143  0.035714     12.000000
 -0.178571  0.107143  0.035714     12.000000
 -0.107143  0.107143  0.035714     12.000000
 -0.035714  0.107143  0.035714     12.000000
  0.178571  0.178571  0.035714      6.000000
  0.250000  0.178571  0.035714     12.000000
  0.321429  0.178571  0.035714     12.000000
  0.392857  0.178571  0.035714     12.000000
  0.464286  0.178571  0.035714     12.000000
 -0.464286  0.178571  0.035714     12.000000
 -0.392857  0.178571  0.035714     12.000000
 -0.321429  0.178571  0.035714     12.000000
 -0.250000  0.178571  0.035714     12.000000
 -0.178571  0.178571  0.035714     12.000000
 -0.107143  0.178571  0.035714     12.000000
 -0.035714  0.178571  0.035714     12.000000
  0.250000  0.250000  0.035714      6.000000
  0.321429  0.250000  0.035714     12.000000
  0.392857  0.250000  0.035714     12.000000
  0.464286  0.250000  0.035714     12.000000
 -0.464286  0.250000  0.035714     12.000000
 -0.392857  0.250000  0.035714     12.000000
 -0.321429  0.250000  0.035714     12.000000
 -0.250000  0.250000  0.035714     12.000000
 -0.178571  0.250000  0.035714     12.000000
 -0.107143  0.250000  0.035714     12.000000
 -0.035714  0.250000  0.035714     12.000000
  0.321429  0.321429  0.035714      6.000000
  0.392857  0.321429  0.035714     12.000000
  0.464286  0.321429  0.035714     12.000000
 -0.464286  0.321429  0.035714     12.000000
 -0.392857  0.321429  0.035714     12.000000
 -0.321429  0.321429  0.035714     12.000000
 -0.250000  0.321429  0.035714     12.000000
 -0.178571  0.321429  0.035714     12.000000
 -0.107143  0.321429  0.035714     12.000000
 -0.035714  0.321429  0.035714     12.000000
  0.392857  0.392857  0.035714      6.000000
  0.464286  0.392857  0.035714     12.000000
 -0.464286  0.392857  0.035714     12.000000
 -0.392857  0.392857  0.035714     12.000000
 -0.321429  0.392857  0.035714     12.000000
 -0.250000  0.392857  0.035714     12.000000
 -0.178571  0.392857  0.035714     12.000000
 -0.107143  0.392857  0.035714     12.000000
 -0.035714  0.392857  0.035714     12.000000
  0.464286  0.464286  0.035714      6.000000
 -0.464286  0.464286  0.035714     12.000000
 -0.392857  0.464286  0.035714     12.000000
 -0.321429  0.464286  0.035714     12.000000
 -0.250000  0.464286  0.035714     12.000000
 -0.178571  0.464286  0.035714     12.000000
 -0.107143  0.464286  0.035714     12.000000
 -0.035714  0.464286  0.035714     12.000000
 -0.464286 -0.464286  0.035714      6.000000
 -0.392857 -0.464286  0.035714     12.000000
 -0.321429 -0.464286  0.035714     12.000000
 -0.250000 -0.464286  0.035714     12.000000
 -0.178571 -0.464286  0.035714     12.000000
 -0.107143 -0.464286  0.035714     12.000000
 -0.392857 -0.392857  0.035714      6.000000
 -0.321429 -0.392857  0.035714     12.000000
 -0.250000 -0.392857  0.035714     12.000000
 -0.178571 -0.392857  0.035714     12.000000
 -0.107143 -0.392857  0.035714     12.000000
 -0.321429 -0.321429  0.035714      6.000000
 -0.250000 -0.321429  0.035714     12.000000
 -0.178571 -0.321429  0.035714     12.000000
 -0.107143 -0.321429  0.035714     12.000000
 -0.250000 -0.250000  0.035714      6.000000
 -0.178571 -0.250000  0.035714     12.000000
 -0.107143 -0.250000  0.035714     12.000000
 -0.178571 -0.178571  0.035714      6.000000
 -0.107143 -0.178571  0.035714     12.000000
 -0.107143 -0.107143  0.035714      6.000000
  0.107143  0.107143  0.107143      2.000000
  0.178571  0.107143  0.107143      6.000000
  0.250000  0.107143  0.107143      6.000000
  0.321429  0.107143  0.107143      6.000000
  0.392857  0.107143  0.107143      6.000000
  0.464286  0.107143  0.107143      6.000000
 -0.464286  0.107143  0.107143      6.000000
 -0.392857  0.107143  0.107143      6.000000
 -0.321429  0.107143  0.107143      6.000000
 -0.250000  0.107143  0.107143      6.000000
 -0.178571  0.107143  0.107143      6.000000
 -0.107143  0.107143  0.107143      6.000000
  0.178571  0.178571  0.107143      6.000000
  0.250000  0.178571  0.107143     12.000000
  0.321429  0.178571  0.107143     12.000000
  0.392857  0.178571  0.107143     12.000000
  0.464286  0.178571  0.107143     12.000000
 -0.464286  0.178571  0.107143     12.000000
 -0.392857  0.178571  0.107143     12.000000
 -0.321429  0.178571  0.107143     12.000000
 -0.250000  0.178571  0.107143     12.000000
 -0.178571  0.178571  0.107143     12.000000
 -0.107143  0.178571  0.107143     12.000000
  0.250000  0.250000  0.107143      6.000000
  0.321429  0.250000  0.107143     12.000000
  0.392857  0.250000  0.107143     12.000000
  0.464286  0.250000  0.107143     12.000000
 -0.464286  0.250000  0.107143     12.000000
 -0.392857  0.250000  0.107143     12.000000
 -0.321429  0.250000  0.107143     12.000000
 -0.250000  0.250000  0.107143     12.000000
 -0.178571  0.250000  0.107143     12.000000
 -0.107143  0.250000  0.107143     12.000000
  0.321429  0.321429  0.107143      6.000000
  0.392857  0.321429  0.107143     12.000000
  0.464286  0.321429  0.107143     12.000000
 -0.464286  0.321429  0.107143     12.000000
 -0.392857  0.321429  0.107143     12.000000
 -0.321429  0.321429  0.107143     12.000000
 -0.250000  0.321429  0.107143     12.000000
 -0.178571  0.321429  0.107143     12.000000
 -0.107143  0.321429  0.107143     12.000000
  0.392857  0.392857  0.107143      6.000000
  0.464286  0.392857  0.107143     12.000000
 -0.464286  0.392857  0.107143     12.000000
 -0.392857  0.392857  0.107143     12.000000
 -0.321429  0.392857  0.107143     12.000000
 -0.250000  0.392857  0.107143     12.000000
 -0.178571  0.392857  0.107143     12.000000
 -0.107143  0.392857  0.107143     12.000000
  0.464286  0.464286  0.107143      6.000000
 -0.464286  0.464286  0.107143     12.000000
 -0.392857  0.464286  0.107143     12.000000
 -0.321429  0.464286  0.107143     12.000000
 -0.250000  0.464286  0.107143     12.000000
 -0.178571  0.464286  0.107143     12.000000
 -0.107143  0.464286  0.107143     12.000000
 -0.464286 -0.464286  0.107143      6.000000
 -0.392857 -0.464286  0.107143     12.000000
 -0.321429 -0.464286  0.107143     12.000000
 -0.250000 -0.464286  0.107143     12.000000
 -0.178571 -0.464286  0.107143     12.000000
 -0.392857 -0.392857  0.107143      6.000000
 -0.321429 -0.392857  0.107143     12.000000
 -0.250000 -0.392857  0.107143     12.000000
 -0.178571 -0.392857  0.107143     12.000000
 -0.321429 -0.321429  0.107143      6.000000
 -0.250000 -0.321429  0.107143     12.000000
 -0.178571 -0.321429  0.107143     12.000000
 -0.250000 -0.250000  0.107143      6.000000
 -0.178571 -0.250000  0.107143     12.000000
 -0.178571 -0.178571  0.107143      6.000000
  0.178571  0.178571  0.178571      2.000000
  0.250000  0.178571  0.178571      6.000000
  0.321429  0.178571  0.178571      6.000000
  0.392857  0.178571  0.178571      6.000000
  0.464286  0.178571  0.178571      6.000000
 -0.464286  0.178571  0.178571      6.000000
 -0.392857  0.178571  0.178571      6.000000
 -0.321429  0.178571  0.178571      6.000000
 -0.250000  0.178571  0.178571      6.000000
 -0.178571  0.178571  0.178571      6.000000
  0.250000  0.250000  0.178571      6.000000
  0.321429  0.250000  0.178571     12.000000
  0.392857  0.250000  0.178571     12.000000
  0.464286  0.250000  0.178571     12.000000
 -0.464286  0.250000  0.178571     12.000000
 -0.392857  0.250000  0.178571     12.000000
 -0.321429  0.250000  0.178571     12.000000
 -0.250000  0.250000  0.178571     12.000000
 -0.178571  0.250000  0.178571     12.000000
  0.321429  0.321429  0.178571      6.000000
  0.392857  0.321429  0.178571     12.000000
  0.464286  0.321429  0.178571     12.000000
 -0.464286  0.321429  0.178571     12.000000
 -0.392857  0.321429  0.178571     12.000000
 -0.321429  0.321429  0.178571     12.000000
 -0.250000  0.321429  0.178571     12.000000
 -0.178571  0.321429  0.178571     12.000000
  0.392857  0.392857  0.178571      6.000000
  0.464286  0.392857  0.178571     12.000000
 -0.464286  0.392857  0.178571     12.000000
 -0.392857  0.392857  0.178571     12.000000
 -0.321429  0.392857  0.178571     12.000000
 -0.250000  0.392857  0.178571     12.000000
 -0.178571  0.392857  0.178571     12.000000
  0.464286  0.464286  0.178571      6.000000
 -0.464286  0.464286  0.178571     12.000000
 -0.392857  0.464286  0.178571     12.000000
 -0.321429  0.464286  0.178571     12.000000
 -0.250000  0.464286  0.178571     12.000000
 -0.178571  0.464286  0.178571     12.000000
 -0.464286 -0.464286  0.178571      6.000000
 -0.392857 -0.464286  0.178571     12.000000
 -0.321429 -0.464286  0.178571     12.000000
 -0.250000 -0.464286  0.178571     12.000000
 -0.392857 -0.392857  0.178571      6.000000
 -0.321429 -0.392857  0.178571     12.000000
 -0.250000 -0.392857  0.178571     12.000000
 -0.321429 -0.321429  0.178571      6.000000
 -0.250000 -0.321429  0.178571     12.000000
 -0.250000 -0.250000  0.178571      6.000000
  0.250000  0.250000  0.250000      2.000000
  0.321429  0.250000  0.250000      6.000000
  0.392857  0.250000  0.250000      6.000000
  0.464286  0.250000  0.250000      6.000000
 -0.464286  0.250000  0.250000      6.000000
 -0.392857  0.250000  0.250000      6.000000
 -0.321429  0.250000  0.250000      6.000000
 -0.250000  0.250000  0.250000      6.000000
  0.321429  0.321429  0.250000      6.000000
  0.392857  0.321429  0.250000     12.000000
  0.464286  0.321429  0.250000     12.000000
 -0.464286  0.321429  0.250000     12.000000
 -0.392857  0.321429  0.250000     12.000000
 -0.321429  0.321429  0.250000     12.000000
 -0.250000  0.321429  0.250000     12.000000
  0.392857  0.392857  0.250000      6.000000
  0.464286  0.392857  0.250000     12.000000
 -0.464286  0.392857  0.250000     12.000000
 -0.392857  0.392857  0.250000     12.000000
 -0.321429  0.392857  0.250000     12.000000
 -0.250000  0.392857  0.250000     12.000000
  0.464286  0.464286  0.250000      6.000000
 -0.464286  0.464286  0.250000     12.000000
 -0.392857  0.464286  0.250000     12.000000
 -0.321429  0.464286  0.250000     12.000000
 -0.250000  0.464286  0.250000     12.000000
 -0.464286 -0.464286  0.250000      6.000000
 -0.392857 -0.464286  0.250000     12.000000
 -0.321429 -0.464286  0.250000     12.000000
 -0.392857 -0.392857  0.250000      6.000000
 -0.321429 -0.392857  0.250000     12.000000
 -0.321429 -0.321429  0.250000      6.000000
  0.321429  0.321429  0.321429      2.000000
  0.392857  0.321429  0.321429      6.000000
  0.464286  0.321429  0.321429      6.000000
 -0.464286  0.321429  0.321429      6.000000
 -0.392857  0.321429  0.321429      6.000000
 -0.321429  0.321429  0.321429      6.000000
  0.392857  0.392857  0.321429      6.000000
  0.464286  0.392857  0.321429     12.000000
 -0.464286  0.392857  0.321429     12.000000
 -0.392857  0.392857  0.321429     12.000000
 -0.321429  0.392857  0.321429     12.000000
  0.464286  0.464286  0.321429      6.000000
 -0.464286  0.464286  0.321429     12.000000
 -0.392857  0.464286  0.321429     12.000000
 -0.321429  0.464286  0.321429     12.000000
 -0.464286 -0.464286  0.321429      6.000000
 -0.392857 -0.464286  0.321429     12.000000
 -0.392857 -0.392857  0.321429      6.000000
  0.392857  0.392857  0.392857      2.000000
  0.464286  0.392857  0.392857      6.000000
 -0.464286  0.392857  0.392857      6.000000
 -0.392857  0.392857  0.392857      6.000000
  0.464286  0.464286  0.392857      6.000000
 -0.464286  0.464286  0.392857     12.000000
 -0.392857  0.464286  0.392857     12.000000
 -0.464286 -0.464286  0.392857      6.000000
  0.464286  0.464286  0.464286      2.000000
 -0.464286  0.464286  0.464286      6.000000
 
 Following cartesian coordinates:
            Coordinates               Weight
  0.000000 -0.000000  0.009360      2.000000
  0.016313  0.009418  0.015600      6.000000
  0.032625  0.018836  0.021840      6.000000
  0.048938  0.028254  0.028080      6.000000
  0.065251  0.037672  0.034320      6.000000
  0.081563  0.047091  0.040560      6.000000
  0.097876  0.056509  0.046801      6.000000
 -0.114189 -0.065927 -0.034320      6.000000
 -0.097876 -0.056509 -0.028080      6.000000
 -0.081563 -0.047091 -0.021840      6.000000
 -0.065251 -0.037672 -0.015600      6.000000
 -0.048938 -0.028254 -0.009360      6.000000
 -0.032625 -0.018836 -0.003120      6.000000
 -0.016313 -0.009418  0.003120      6.000000
 -0.000000  0.018836  0.021840      6.000000
  0.016313  0.028254  0.028080     12.000000
  0.032625  0.037672  0.034320     12.000000
  0.048938  0.047091  0.040560     12.000000
  0.065251  0.056509  0.046801     12.000000
  0.081563  0.065927  0.053041     12.000000
 -0.130501 -0.056509 -0.028080     12.000000
 -0.114189 -0.047091 -0.021840     12.000000
 -0.097876 -0.037672 -0.015600     12.000000
 -0.081563 -0.028254 -0.009360     12.000000
 -0.065251 -0.018836 -0.003120     12.000000
 -0.048938 -0.009418  0.003120     12.000000
 -0.032625 -0.000000  0.009360     12.000000
 -0.000000  0.037672  0.034320      6.000000
  0.016313  0.047091  0.040560     12.000000
  0.032625  0.056509  0.046801     12.000000
  0.048938  0.065927  0.053041     12.000000
  0.065251  0.075345  0.059281     12.000000
 -0.146814 -0.047091 -0.021840     12.000000
 -0.130501 -0.037672 -0.015600     12.000000
 -0.114189 -0.028254 -0.009360     12.000000
 -0.097876 -0.018836 -0.003120     12.000000
 -0.081563 -0.009418  0.003120     12.000000
 -0.065251  0.000000  0.009360     12.000000
 -0.048938  0.009418  0.015600     12.000000
 -0.000000  0.056509  0.046801      6.000000
  0.016313  0.065927  0.053041     12.000000
  0.032625  0.075345  0.059281     12.000000
  0.048938  0.084763  0.065521     12.000000
 -0.163126 -0.037672 -0.015600     12.000000
 -0.146814 -0.028254 -0.009360     12.000000
 -0.130501 -0.018836 -0.003120     12.000000
 -0.114189 -0.009418  0.003120     12.000000
 -0.097876 -0.000000  0.009360     12.000000
 -0.081563  0.009418  0.015600     12.000000
 -0.065251  0.018836  0.021840     12.000000
 -0.000000  0.075345  0.059281      6.000000
  0.016313  0.084763  0.065521     12.000000
  0.032625  0.094181  0.071761     12.000000
 -0.179439 -0.028254 -0.009360     12.000000
 -0.163126 -0.018836 -0.003120     12.000000
 -0.146814 -0.009418  0.003120     12.000000
 -0.130501 -0.000000  0.009360     12.000000
 -0.114189  0.009418  0.015600     12.000000
 -0.097876  0.018836  0.021840     12.000000
 -0.081563  0.028254  0.028080     12.000000
  0.000000  0.094181  0.071761      6.000000
  0.016313  0.103599  0.078001     12.000000
 -0.195752 -0.018836 -0.003120     12.000000
 -0.179439 -0.009418  0.003120     12.000000
 -0.163126  0.000000  0.009360     12.000000
 -0.146814  0.009418  0.015600     12.000000
 -0.130501  0.018836  0.021840     12.000000
 -0.114189  0.028254  0.028080     12.000000
 -0.097876  0.037672  0.034320     12.000000
 -0.000000  0.113017  0.084241      6.000000
 -0.212064 -0.009418  0.003120     12.000000
 -0.195752 -0.000000  0.009360     12.000000
 -0.179439  0.009418  0.015600     12.000000
 -0.163126  0.018836  0.021840     12.000000
 -0.146814  0.028254  0.028080     12.000000
 -0.130501  0.037672  0.034320     12.000000
 -0.114189  0.047091  0.040560     12.000000
  0.000000 -0.131854 -0.078001      6.000000
  0.016313 -0.122435 -0.071761     12.000000
  0.032625 -0.113017 -0.065521     12.000000
  0.048938 -0.103599 -0.059281     12.000000
  0.065251 -0.094181 -0.053041     12.000000
  0.081563 -0.084763 -0.046801     12.000000
  0.000000 -0.113017 -0.065521      6.000000
  0.016313 -0.103599 -0.059281     12.000000
  0.032625 -0.094181 -0.053041     12.000000
  0.048938 -0.084763 -0.046801     12.000000
  0.065251 -0.075345 -0.040560     12.000000
  0.000000 -0.094181 -0.053041      6.000000
  0.016313 -0.084763 -0.046801     12.000000
  0.032625 -0.075345 -0.040560     12.000000
  0.048938 -0.065927 -0.034320     12.000000
  0.000000 -0.075345 -0.040560      6.000000
  0.016313 -0.065927 -0.034320     12.000000
  0.032625 -0.056509 -0.028080     12.000000
 -0.000000 -0.056509 -0.028080      6.000000
  0.016313 -0.047091 -0.021840     12.000000
  0.000000 -0.037672 -0.015600      6.000000
 -0.000000 -0.000000  0.028080      2.000000
  0.016313  0.009418  0.034320      6.000000
  0.032625  0.018836  0.040560      6.000000
  0.048938  0.028254  0.046801      6.000000
  0.065251  0.037672  0.053041      6.000000
  0.081563  0.047091  0.059281      6.000000
 -0.130501 -0.075345 -0.021840      6.000000
 -0.114189 -0.065927 -0.015600      6.000000
 -0.097876 -0.056509 -0.009360      6.000000
 -0.081563 -0.047091 -0.003120      6.000000
 -0.065251 -0.037672  0.003120      6.000000
 -0.048938 -0.028254  0.009360      6.000000
 -0.000000  0.018836  0.040560      6.000000
  0.016313  0.028254  0.046801     12.000000
  0.032625  0.037672  0.053041     12.000000
  0.048938  0.047091  0.059281     12.000000
  0.065251  0.056509  0.065521     12.000000
 -0.146814 -0.065927 -0.015600     12.000000
 -0.130501 -0.056509 -0.009360     12.000000
 -0.114189 -0.047091 -0.003120     12.000000
 -0.097876 -0.037672  0.003120     12.000000
 -0.081563 -0.028254  0.009360     12.000000
 -0.065251 -0.018836  0.015600     12.000000
 -0.000000  0.037672  0.053041      6.000000
  0.016313  0.047091  0.059281     12.000000
  0.032625  0.056509  0.065521     12.000000
  0.048938  0.065927  0.071761     12.000000
 -0.163126 -0.056509 -0.009360     12.000000
 -0.146814 -0.047091 -0.003120     12.000000
 -0.130501 -0.037672  0.003120     12.000000
 -0.114189 -0.028254  0.009360     12.000000
 -0.097876 -0.018836  0.015600     12.000000
 -0.081563 -0.009418  0.021840     12.000000
 -0.000000  0.056509  0.065521      6.000000
  0.016313  0.065927  0.071761     12.000000
  0.032625  0.075345  0.078001     12.000000
 -0.179439 -0.047091 -0.003120     12.000000
 -0.163126 -0.037672  0.003120     12.000000
 -0.146814 -0.028254  0.009360     12.000000
 -0.130501 -0.018836  0.015600     12.000000
 -0.114189 -0.009418  0.021840     12.000000
 -0.097876  0.000000  0.028080     12.000000
 -0.000000  0.075345  0.078001      6.000000
  0.016313  0.084763  0.084241     12.000000
 -0.195752 -0.037672  0.003120     12.000000
 -0.179439 -0.028254  0.009360     12.000000
 -0.163126 -0.018836  0.015600     12.000000
 -0.146814 -0.009418  0.021840     12.000000
 -0.130501  0.000000  0.028080     12.000000
 -0.114189  0.009418  0.034320     12.000000
 -0.000000  0.094181  0.090481      6.000000
 -0.212064 -0.028254  0.009360     12.000000
 -0.195752 -0.018836  0.015600     12.000000
 -0.179439 -0.009418  0.021840     12.000000
 -0.163126  0.000000  0.028080     12.000000
 -0.146814  0.009418  0.034320     12.000000
 -0.130501  0.018836  0.040560     12.000000
  0.000000 -0.150690 -0.071761      6.000000
  0.016313 -0.141272 -0.065521     12.000000
  0.032625 -0.131854 -0.059281     12.000000
  0.048938 -0.122435 -0.053041     12.000000
  0.065251 -0.113017 -0.046801     12.000000
  0.000000 -0.131854 -0.059281      6.000000
  0.016313 -0.122435 -0.053041     12.000000
  0.032625 -0.113017 -0.046801     12.000000
  0.048938 -0.103599 -0.040560     12.000000
  0.000000 -0.113017 -0.046801      6.000000
  0.016313 -0.103599 -0.040560     12.000000
  0.032625 -0.094181 -0.034320     12.000000
  0.000000 -0.094181 -0.034320      6.000000
  0.016313 -0.084763 -0.028080     12.000000
 -0.000000 -0.075345 -0.021840      6.000000
 -0.000000 -0.000000  0.046801      2.000000
  0.016313  0.009418  0.053041      6.000000
  0.032625  0.018836  0.059281      6.000000
  0.048938  0.028254  0.065521      6.000000
  0.065251  0.037672  0.071761      6.000000
 -0.146814 -0.084763 -0.009360      6.000000
 -0.130501 -0.075345 -0.003120      6.000000
 -0.114189 -0.065927  0.003120      6.000000
 -0.097876 -0.056509  0.009360      6.000000
 -0.081563 -0.047091  0.015600      6.000000
 -0.000000  0.018836  0.059281      6.000000
  0.016313  0.028254  0.065521     12.000000
  0.032625  0.037672  0.071761     12.000000
  0.048938  0.047091  0.078001     12.000000
 -0.163126 -0.075345 -0.003120     12.000000
 -0.146814 -0.065927  0.003120     12.000000
 -0.130501 -0.056509  0.009360     12.000000
 -0.114189 -0.047091  0.015600     12.000000
 -0.097876 -0.037672  0.021840     12.000000
 -0.000000  0.037672  0.071761      6.000000
  0.016313  0.047091  0.078001     12.000000
  0.032625  0.056509  0.084241     12.000000
 -0.179439 -0.065927  0.003120     12.000000
 -0.163126 -0.056509  0.009360     12.000000
 -0.146814 -0.047091  0.015600     12.000000
 -0.130501 -0.037672  0.021840     12.000000
 -0.114189 -0.028254  0.028080     12.000000
 -0.000000  0.056509  0.084241      6.000000
  0.016313  0.065927  0.090481     12.000000
 -0.195752 -0.056509  0.009360     12.000000
 -0.179439 -0.047091  0.015600     12.000000
 -0.163126 -0.037672  0.021840     12.000000
 -0.146814 -0.028254  0.028080     12.000000
 -0.130501 -0.018836  0.034320     12.000000
 -0.000000  0.075345  0.096721      6.000000
 -0.212064 -0.047091  0.015600     12.000000
 -0.195752 -0.037672  0.021840     12.000000
 -0.179439 -0.028254  0.028080     12.000000
 -0.163126 -0.018836  0.034320     12.000000
 -0.146814 -0.009418  0.040560     12.000000
  0.000000 -0.169526 -0.065521      6.000000
  0.016313 -0.160108 -0.059281     12.000000
  0.032625 -0.150690 -0.053041     12.000000
  0.048938 -0.141272 -0.046801     12.000000
 -0.000000 -0.150690 -0.053041      6.000000
  0.016313 -0.141272 -0.046801     12.000000
  0.032625 -0.131854 -0.040560     12.000000
  0.000000 -0.131854 -0.040560      6.000000
  0.016313 -0.122435 -0.034320     12.000000
  0.000000 -0.113017 -0.028080      6.000000
  0.000000 -0.000000  0.065521      2.000000
  0.016313  0.009418  0.071761      6.000000
  0.032625  0.018836  0.078001      6.000000
  0.048938  0.028254  0.084241      6.000000
 -0.163126 -0.094181  0.003120      6.000000
 -0.146814 -0.084763  0.009360      6.000000
 -0.130501 -0.075345  0.015600      6.000000
 -0.114189 -0.065927  0.021840      6.000000
  0.000000  0.018836  0.078001      6.000000
  0.016313  0.028254  0.084241     12.000000
  0.032625  0.037672  0.090481     12.000000
 -0.179439 -0.084763  0.009360     12.000000
 -0.163126 -0.075345  0.015600     12.000000
 -0.146814 -0.065927  0.021840     12.000000
 -0.130501 -0.056509  0.028080     12.000000
 -0.000000  0.037672  0.090481      6.000000
  0.016313  0.047091  0.096721     12.000000
 -0.195752 -0.075345  0.015600     12.000000
 -0.179439 -0.065927  0.021840     12.000000
 -0.163126 -0.056509  0.028080     12.000000
 -0.146814 -0.047091  0.034320     12.000000
 -0.000000  0.056509  0.102961      6.000000
 -0.212064 -0.065927  0.021840     12.000000
 -0.195752 -0.056509  0.028080     12.000000
 -0.179439 -0.047091  0.034320     12.000000
 -0.163126 -0.037672  0.040560     12.000000
  0.000000 -0.188362 -0.059281      6.000000
  0.016313 -0.178944 -0.053041     12.000000
  0.032625 -0.169526 -0.046801     12.000000
 -0.000000 -0.169526 -0.046801      6.000000
  0.016313 -0.160108 -0.040560     12.000000
 -0.000000 -0.150690 -0.034320      6.000000
 -0.000000 -0.000000  0.084241      2.000000
  0.016313  0.009418  0.090481      6.000000
  0.032625  0.018836  0.096721      6.000000
 -0.179439 -0.103599  0.015600      6.000000
 -0.163126 -0.094181  0.021840      6.000000
 -0.146814 -0.084763  0.028080      6.000000
  0.000000  0.018836  0.096721      6.000000
  0.016313  0.028254  0.102961     12.000000
 -0.195752 -0.094181  0.021840     12.000000
 -0.179439 -0.084763  0.028080     12.000000
 -0.163126 -0.075345  0.034320     12.000000
 -0.000000  0.037672  0.109201      6.000000
 -0.212064 -0.084763  0.028080     12.000000
 -0.195752 -0.075345  0.034320     12.000000
 -0.179439 -0.065927  0.040560     12.000000
  0.000000 -0.207198 -0.053041      6.000000
  0.016313 -0.197780 -0.046801     12.000000
 -0.000000 -0.188362 -0.040560      6.000000
 -0.000000 -0.000000  0.102961      2.000000
  0.016313  0.009418  0.109201      6.000000
 -0.195752 -0.113017  0.028080      6.000000
 -0.179439 -0.103599  0.034320      6.000000
 -0.000000  0.018836  0.115441      6.000000
 -0.212064 -0.103599  0.034320     12.000000
 -0.195752 -0.094181  0.040560     12.000000
  0.000000 -0.226035 -0.046801      6.000000
 -0.000000 -0.000000  0.121681      2.000000
 -0.212064 -0.122435  0.040560      6.000000
 


--------------------------------------------------------------------------------------------------------




 Dimension of arrays:
   k-points           NKPTS =    280   k-points in BZ     NKDIM =    280   number of bands    NBANDS=     16
   number of dos      NEDOS =    301   number of ions     NIONS =      2
   non local maximal  LDIM  =      5   non local SUM 2l+1 LMDIM =     13
   total plane-waves  NPLWV =  46656
   max r-space proj   IRMAX =      1   max aug-charges    IRDMAX=  41063
   dimension x,y,z NGX =    36 NGY =   36 NGZ =   36
   dimension x,y,z NGXF=    72 NGYF=   72 NGZF=   72
   support grid    NGXF=    72 NGYF=   72 NGZF=   72
   ions per type =               2
   NGX,Y,Z   is equivalent  to a cutoff of  13.08, 13.08, 13.08 a.u.
   NGXF,Y,Z  is equivalent  to a cutoff of  26.15, 26.15, 26.15 a.u.

 SYSTEM =  unknown system                          
 POSCAR =  Sb R-3m                                 

 Startparameter for this run:
   NWRITE =      2    write-flag & timer
   PREC   = accura    normal or accurate (medium, high low for compatibility)
   ISTART =      0    job   : 0-new  1-cont  2-samecut
   ICHARG =      2    charge: 1-file 2-atom 10-const
   ISPIN  =      1    spin polarized calculation?
   LNONCOLLINEAR =      F non collinear calculations
   LSORBIT =      F    spin-orbit coupling
   INIWAV =      1    electr: 0-lowe 1-rand  2-diag
   LASPH  =      F    aspherical Exc in radial PAW
 Electronic Relaxation 1
   ENCUT  =  500.0 eV  36.75 Ry    6.06 a.u.   8.35  8.35  8.35*2*pi/ulx,y,z
   ENINI  =  500.0     initial cutoff
   ENAUG  =  380.5 eV  augmentation charge cutoff
   NELM   =     60;   NELMIN=  2; NELMDL= -5     # of ELM steps 
   EDIFF  = 0.1E-05   stopping-criterion for ELM
   LREAL  =      F    real-space projection
   NLSPLINE    = F    spline interpolate recip. space projectors
   LCOMPAT=      F    compatible to vasp.4.4
   GGA_COMPAT  = T    GGA compatible to vasp.4.4-vasp.4.6
   LMAXPAW     = -100 max onsite density
   LMAXMIX     =    2 max onsite mixed and CHGCAR
   VOSKOWN=      0    Vosko Wilk Nusair interpolation
   ROPT   =    0.00000
 Ionic relaxation
   EDIFFG = 0.1E-04   stopping-criterion for IOM
   NSW    =      0    number of steps for IOM
   NBLOCK =      1;   KBLOCK =      1    inner block; outer block 
   IBRION =     -1    ionic relax: 0-MD 1-quasi-New 2-CG
   NFREE  =      0    steps in history (QN), initial steepest desc. (CG)
   ISIF   =      2    stress and relaxation
   IWAVPR =     10    prediction:  0-non 1-charg 2-wave 3-comb
   ISYM   =      2    0-nonsym 1-usesym 2-fastsym
   LCORR  =      T    Harris-Foulkes like correction to forces

   POTIM  = 0.5000    time-step for ionic-motion
   TEIN   =    0.0    initial temperature
   TEBEG  =    0.0;   TEEND  =   0.0 temperature during run
   SMASS  =  -3.00    Nose mass-parameter (am)
   estimated Nose-frequenzy (Omega)   =  0.10E-29 period in steps = 0.13E+47 mass=  -0.479E-27a.u.
   SCALEE = 1.0000    scale energy and forces
   NPACO  =    256;   APACO  = 10.0  distance and # of slots for P.C.
   PSTRESS=    0.0 pullay stress

  Mass of Ions in am
   POMASS = 121.75
  Ionic Valenz
   ZVAL   =   5.00
  Atomic Wigner-Seitz radii
   RWIGS  =  -1.00
  virtual crystal weights 
   VCA    =   1.00
   NELECT =      10.0000    total number of electrons
   NUPDOWN=      -1.0000    fix difference up-down

 DOS related values:
   EMIN   =  10.00;   EMAX   =-10.00  energy-range for DOS
   EFERMI =   0.00
   ISMEAR =     0;   SIGMA  =   0.05  broadening in eV -4-tet -1-fermi 0-gaus

 Electronic relaxation 2 (details)
   IALGO  =     38    algorithm
   LDIAG  =      T    sub-space diagonalisation (order eigenvalues)
   LSUBROT=      F    optimize rotation matrix (better conditioning)
   TURBO    =      0    0=normal 1=particle mesh
   IRESTART =      0    0=no restart 2=restart with 2 vectors
   NREBOOT  =      0    no. of reboots
   NMIN     =      0    reboot dimension
   EREF     =   0.00    reference energy to select bands
   IMIX   =      4    mixing-type and parameters
     AMIX     =   0.40;   BMIX     =  1.00
     AMIX_MAG =   1.60;   BMIX_MAG =  1.00
     AMIN     =   0.10
     WC   =   100.;   INIMIX=   1;  MIXPRE=   1;  MAXMIX= -45

 Intra band minimization:
   WEIMIN = 0.0000     energy-eigenvalue tresh-hold
   EBREAK =  0.16E-07  absolut break condition
   DEPER  =   0.30     relativ break condition  

   TIME   =   0.40     timestep for ELM

  volume/ion in A,a.u.               =      31.68       213.77
  Fermi-wavevector in a.u.,A,eV,Ry     =   0.884733  1.671904 10.650003  0.782753
  Thomas-Fermi vector in A             =   2.005673
 
 Write flags
   LWAVE        =      F    write WAVECAR
   LDOWNSAMPLE  =      F    k-point downsampling of WAVECAR
   LCHARG       =      F    write CHGCAR
   LVTOT        =      F    write LOCPOT, total local potential
   LVHAR        =      F    write LOCPOT, Hartree potential only
   LELF         =      F    write electronic localiz. function (ELF)
   LORBIT       =      0    0 simple, 1 ext, 2 COOP (PROOUT), +10 PAW based schemes


 Dipole corrections
   LMONO  =      F    monopole corrections only (constant potential shift)
   LDIPOL =      F    correct potential (dipole corrections)
   IDIPOL =      0    1-x, 2-y, 3-z, 4-all directions 
   EPSILON=  1.0000000 bulk dielectric constant

 Exchange correlation treatment:
   GGA     =    --    GGA type
   LEXCH   =     8    internal setting for exchange type
   LIBXC   =     F    Libxc                    
   VOSKOWN =     0    Vosko Wilk Nusair interpolation
   LHFCALC =     F    Hartree Fock is set to
   LHFONE  =     F    Hartree Fock one center treatment
   AEXX    =    0.0000 exact exchange contribution

 Linear response parameters
   LEPSILON=     F    determine dielectric tensor
   LRPA    =     F    only Hartree local field effects (RPA)
   LNABLA  =     F    use nabla operator in PAW spheres
   LVEL    =     F    velocity operator in full k-point grid
   CSHIFT  =0.1000    complex shift for real part using Kramers Kronig
   OMEGAMAX=  -1.0    maximum frequency
   DEG_THRESHOLD= 0.2000000E-02 threshold for treating states as degnerate
   RTIME   =   -0.100 relaxation time in fs
  (WPLASMAI=    0.000 imaginary part of plasma frequency in eV, 0.658/RTIME)
   DFIELD  = 0.0000000 0.0000000 0.0000000 field for delta impulse in time
 
  Optional k-point grid parameters
   LKPOINTS_OPT  =     F    use optional k-point grid
   KPOINTS_OPT_MODE=     1    mode for optional k-point grid
 
 Orbital magnetization related:
   ORBITALMAG=     F  switch on orbital magnetization
   LCHIMAG   =     F  perturbation theory with respect to B field
   DQ        =  0.001000  dq finite difference perturbation B field
   LLRAUG    =     F  two centre corrections for induced B field



--------------------------------------------------------------------------------------------------------


 Static calculation
 charge density and potential will be updated during run
 non-spin polarized calculation
 Variant of blocked Davidson
 Davidson routine will perform the subspace rotation
 perform sub-space diagonalisation
    after iterative eigenvector-optimisation
 modified Broyden-mixing scheme, WC =      100.0
 initial mixing is a Kerker type mixing with AMIX =  0.4000 and BMIX =      1.0000
 Hartree-type preconditioning will be used
 using additional bands           11
 reciprocal scheme for non local part
 use partial core corrections
 calculate Harris-corrections to forces 
   (improved forces if not selfconsistent)
 use gradient corrections 
 use of overlap-Matrix (Vanderbilt PP)
 Gauss-broadening in eV      SIGMA  =   0.05


--------------------------------------------------------------------------------------------------------


  energy-cutoff  :      500.00
  volume of cell :       63.36
      direct lattice vectors                 reciprocal lattice vectors
     2.189362291  1.264028908  3.815586982     0.228377004  0.131853525  0.087360958
    -2.189362291  1.264028908  3.815586982    -0.228377004  0.131853525  0.087360958
     0.000000000 -2.528057816  3.815586982     0.000000000 -0.263707049  0.087360958

  length of vectors
     4.577093001  4.577093001  4.577093001     0.277800908  0.277800908  0.277800908


 
 k-points in units of 2pi/SCALE and weight: K-Spacing Value to Generate K-Mesh: 0.02
  -0.00000000 -0.00000000  0.00936010       0.001
   0.01631264  0.00941811  0.01560017       0.002
   0.03262529  0.01883622  0.02184024       0.002
   0.04893793  0.02825433  0.02808031       0.002
   0.06525057  0.03767244  0.03432038       0.002
   0.08156322  0.04709054  0.04056044       0.002
   0.09787586  0.05650865  0.04680051       0.002
  -0.11418850 -0.06592676 -0.03432038       0.002
  -0.09787586 -0.05650865 -0.02808031       0.002
  -0.08156322 -0.04709054 -0.02184024       0.002
  -0.06525057 -0.03767244 -0.01560017       0.002
  -0.04893793 -0.02825433 -0.00936010       0.002
  -0.03262529 -0.01883622 -0.00312003       0.002
  -0.01631264 -0.00941811  0.00312003       0.002
  -0.00000000  0.01883622  0.02184024       0.002
   0.01631264  0.02825433  0.02808031       0.004
   0.03262529  0.03767244  0.03432038       0.004
   0.04893793  0.04709054  0.04056044       0.004
   0.06525057  0.05650865  0.04680051       0.004
   0.08156322  0.06592676  0.05304058       0.004
  -0.13050114 -0.05650865 -0.02808031       0.004
  -0.11418850 -0.04709054 -0.02184024       0.004
  -0.09787586 -0.03767244 -0.01560017       0.004
  -0.08156322 -0.02825433 -0.00936010       0.004
  -0.06525057 -0.01883622 -0.00312003       0.004
  -0.04893793 -0.00941811  0.00312003       0.004
  -0.03262529 -0.00000000  0.00936010       0.004
  -0.00000000  0.03767244  0.03432038       0.002
   0.01631264  0.04709054  0.04056044       0.004
   0.03262529  0.05650865  0.04680051       0.004
   0.04893793  0.06592676  0.05304058       0.004
   0.06525057  0.07534487  0.05928065       0.004
  -0.14681379 -0.04709054 -0.02184024       0.004
  -0.13050114 -0.03767244 -0.01560017       0.004
  -0.11418850 -0.02825433 -0.00936010       0.004
  -0.09787586 -0.01883622 -0.00312003       0.004
  -0.08156322 -0.00941811  0.00312003       0.004
  -0.06525057  0.00000000  0.00936010       0.004
  -0.04893793  0.00941811  0.01560017       0.004
   0.00000000  0.05650865  0.04680051       0.002
   0.01631264  0.06592676  0.05304058       0.004
   0.03262529  0.07534487  0.05928065       0.004
   0.04893793  0.08476298  0.06552072       0.004
  -0.16312643 -0.03767244 -0.01560017       0.004
  -0.14681379 -0.02825433 -0.00936010       0.004
  -0.13050114 -0.01883622 -0.00312003       0.004
  -0.11418850 -0.00941811  0.00312003       0.004
  -0.09787586 -0.00000000  0.00936010       0.004
  -0.08156322  0.00941811  0.01560017       0.004
  -0.06525057  0.01883622  0.02184024       0.004
  -0.00000000  0.07534487  0.05928065       0.002
   0.01631264  0.08476298  0.06552072       0.004
   0.03262529  0.09418109  0.07176079       0.004
  -0.17943907 -0.02825433 -0.00936010       0.004
  -0.16312643 -0.01883622 -0.00312003       0.004
  -0.14681379 -0.00941811  0.00312003       0.004
  -0.13050114 -0.00000000  0.00936010       0.004
  -0.11418850  0.00941811  0.01560017       0.004
  -0.09787586  0.01883622  0.02184024       0.004
  -0.08156322  0.02825433  0.02808031       0.004
   0.00000000  0.09418109  0.07176079       0.002
   0.01631264  0.10359920  0.07800086       0.004
  -0.19575172 -0.01883622 -0.00312003       0.004
  -0.17943907 -0.00941811  0.00312003       0.004
  -0.16312643  0.00000000  0.00936010       0.004
  -0.14681379  0.00941811  0.01560017       0.004
  -0.13050114  0.01883622  0.02184024       0.004
  -0.11418850  0.02825433  0.02808031       0.004
  -0.09787586  0.03767244  0.03432038       0.004
  -0.00000000  0.11301731  0.08424092       0.002
  -0.21206436 -0.00941811  0.00312003       0.004
  -0.19575172 -0.00000000  0.00936010       0.004
  -0.17943907  0.00941811  0.01560017       0.004
  -0.16312643  0.01883622  0.02184024       0.004
  -0.14681379  0.02825433  0.02808031       0.004
  -0.13050114  0.03767244  0.03432038       0.004
  -0.11418850  0.04709054  0.04056044       0.004
   0.00000000 -0.13185352 -0.07800086       0.002
   0.01631264 -0.12243542 -0.07176079       0.004
   0.03262529 -0.11301731 -0.06552072       0.004
   0.04893793 -0.10359920 -0.05928065       0.004
   0.06525057 -0.09418109 -0.05304058       0.004
   0.08156322 -0.08476298 -0.04680051       0.004
   0.00000000 -0.11301731 -0.06552072       0.002
   0.01631264 -0.10359920 -0.05928065       0.004
   0.03262529 -0.09418109 -0.05304058       0.004
   0.04893793 -0.08476298 -0.04680051       0.004
   0.06525057 -0.07534487 -0.04056044       0.004
   0.00000000 -0.09418109 -0.05304058       0.002
   0.01631264 -0.08476298 -0.04680051       0.004
   0.03262529 -0.07534487 -0.04056044       0.004
   0.04893793 -0.06592676 -0.03432038       0.004
   0.00000000 -0.07534487 -0.04056044       0.002
   0.01631264 -0.06592676 -0.03432038       0.004
   0.03262529 -0.05650865 -0.02808031       0.004
   0.00000000 -0.05650865 -0.02808031       0.002
   0.01631264 -0.04709054 -0.02184024       0.004
   0.00000000 -0.03767244 -0.01560017       0.002
  -0.00000000 -0.00000000  0.02808031       0.001
   0.01631264  0.00941811  0.03432038       0.002
   0.03262529  0.01883622  0.04056044       0.002
   0.04893793  0.02825433  0.04680051       0.002
   0.06525057  0.03767244  0.05304058       0.002
   0.08156322  0.04709054  0.05928065       0.002
  -0.13050114 -0.07534487 -0.02184024       0.002
  -0.11418850 -0.06592676 -0.01560017       0.002
  -0.09787586 -0.05650865 -0.00936010       0.002
  -0.08156322 -0.04709054 -0.00312003       0.002
  -0.06525057 -0.03767244  0.00312003       0.002
  -0.04893793 -0.02825433  0.00936010       0.002
  -0.00000000  0.01883622  0.04056044       0.002
   0.01631264  0.02825433  0.04680051       0.004
   0.03262529  0.03767244  0.05304058       0.004
   0.04893793  0.04709054  0.05928065       0.004
   0.06525057  0.05650865  0.06552072       0.004
  -0.14681379 -0.06592676 -0.01560017       0.004
  -0.13050114 -0.05650865 -0.00936010       0.004
  -0.11418850 -0.04709054 -0.00312003       0.004
  -0.09787586 -0.03767244  0.00312003       0.004
  -0.08156322 -0.02825433  0.00936010       0.004
  -0.06525057 -0.01883622  0.01560017       0.004
  -0.00000000  0.03767244  0.05304058       0.002
   0.01631264  0.04709054  0.05928065       0.004
   0.03262529  0.05650865  0.06552072       0.004
   0.04893793  0.06592676  0.07176079       0.004
  -0.16312643 -0.05650865 -0.00936010       0.004
  -0.14681379 -0.04709054 -0.00312003       0.004
  -0.13050114 -0.03767244  0.00312003       0.004
  -0.11418850 -0.02825433  0.00936010       0.004
  -0.09787586 -0.01883622  0.01560017       0.004
  -0.08156322 -0.00941811  0.02184024       0.004
  -0.00000000  0.05650865  0.06552072       0.002
   0.01631264  0.06592676  0.07176079       0.004
   0.03262529  0.07534487  0.07800086       0.004
  -0.17943907 -0.04709054 -0.00312003       0.004
  -0.16312643 -0.03767244  0.00312003       0.004
  -0.14681379 -0.02825433  0.00936010       0.004
  -0.13050114 -0.01883622  0.01560017       0.004
  -0.11418850 -0.00941811  0.02184024       0.004
  -0.09787586  0.00000000  0.02808031       0.004
  -0.00000000  0.07534487  0.07800086       0.002
   0.01631264  0.08476298  0.08424092       0.004
  -0.19575172 -0.03767244  0.00312003       0.004
  -0.17943907 -0.02825433  0.00936010       0.004
  -0.16312643 -0.01883622  0.01560017       0.004
  -0.14681379 -0.00941811  0.02184024       0.004
  -0.13050114  0.00000000  0.02808031       0.004
  -0.11418850  0.00941811  0.03432038       0.004
  -0.00000000  0.09418109  0.09048099       0.002
  -0.21206436 -0.02825433  0.00936010       0.004
  -0.19575172 -0.01883622  0.01560017       0.004
  -0.17943907 -0.00941811  0.02184024       0.004
  -0.16312643  0.00000000  0.02808031       0.004
  -0.14681379  0.00941811  0.03432038       0.004
  -0.13050114  0.01883622  0.04056044       0.004
   0.00000000 -0.15068974 -0.07176079       0.002
   0.01631264 -0.14127163 -0.06552072       0.004
   0.03262529 -0.13185352 -0.05928065       0.004
   0.04893793 -0.12243542 -0.05304058       0.004
   0.06525057 -0.11301731 -0.04680051       0.004
   0.00000000 -0.13185352 -0.05928065       0.002
   0.01631264 -0.12243542 -0.05304058       0.004
   0.03262529 -0.11301731 -0.04680051       0.004
   0.04893793 -0.10359920 -0.04056044       0.004
   0.00000000 -0.11301731 -0.04680051       0.002
   0.01631264 -0.10359920 -0.04056044       0.004
   0.03262529 -0.09418109 -0.03432038       0.004
   0.00000000 -0.09418109 -0.03432038       0.002
   0.01631264 -0.08476298 -0.02808031       0.004
   0.00000000 -0.07534487 -0.02184024       0.002
  -0.00000000 -0.00000000  0.04680051       0.001
   0.01631264  0.00941811  0.05304058       0.002
   0.03262529  0.01883622  0.05928065       0.002
   0.04893793  0.02825433  0.06552072       0.002
   0.06525057  0.03767244  0.07176079       0.002
  -0.14681379 -0.08476298 -0.00936010       0.002
  -0.13050114 -0.07534487 -0.00312003       0.002
  -0.11418850 -0.06592676  0.00312003       0.002
  -0.09787586 -0.05650865  0.00936010       0.002
  -0.08156322 -0.04709054  0.01560017       0.002
  -0.00000000  0.01883622  0.05928065       0.002
   0.01631264  0.02825433  0.06552072       0.004
   0.03262529  0.03767244  0.07176079       0.004
   0.04893793  0.04709054  0.07800086       0.004
  -0.16312643 -0.07534487 -0.00312003       0.004
  -0.14681379 -0.06592676  0.00312003       0.004
  -0.13050114 -0.05650865  0.00936010       0.004
  -0.11418850 -0.04709054  0.01560017       0.004
  -0.09787586 -0.03767244  0.02184024       0.004
  -0.00000000  0.03767244  0.07176079       0.002
   0.01631264  0.04709054  0.07800086       0.004
   0.03262529  0.05650865  0.08424092       0.004
  -0.17943907 -0.06592676  0.00312003       0.004
  -0.16312643 -0.05650865  0.00936010       0.004
  -0.14681379 -0.04709054  0.01560017       0.004
  -0.13050114 -0.03767244  0.02184024       0.004
  -0.11418850 -0.02825433  0.02808031       0.004
  -0.00000000  0.05650865  0.08424092       0.002
   0.01631264  0.06592676  0.09048099       0.004
  -0.19575172 -0.05650865  0.00936010       0.004
  -0.17943907 -0.04709054  0.01560017       0.004
  -0.16312643 -0.03767244  0.02184024       0.004
  -0.14681379 -0.02825433  0.02808031       0.004
  -0.13050114 -0.01883622  0.03432038       0.004
  -0.00000000  0.07534487  0.09672106       0.002
  -0.21206436 -0.04709054  0.01560017       0.004
  -0.19575172 -0.03767244  0.02184024       0.004
  -0.17943907 -0.02825433  0.02808031       0.004
  -0.16312643 -0.01883622  0.03432038       0.004
  -0.14681379 -0.00941811  0.04056044       0.004
   0.00000000 -0.16952596 -0.06552072       0.002
   0.01631264 -0.16010785 -0.05928065       0.004
   0.03262529 -0.15068974 -0.05304058       0.004
   0.04893793 -0.14127163 -0.04680051       0.004
   0.00000000 -0.15068974 -0.05304058       0.002
   0.01631264 -0.14127163 -0.04680051       0.004
   0.03262529 -0.13185352 -0.04056044       0.004
   0.00000000 -0.13185352 -0.04056044       0.002
   0.01631264 -0.12243542 -0.03432038       0.004
   0.00000000 -0.11301731 -0.02808031       0.002
   0.00000000 -0.00000000  0.06552072       0.001
   0.01631264  0.00941811  0.07176079       0.002
   0.03262529  0.01883622  0.07800086       0.002
   0.04893793  0.02825433  0.08424092       0.002
  -0.16312643 -0.09418109  0.00312003       0.002
  -0.14681379 -0.08476298  0.00936010       0.002
  -0.13050114 -0.07534487  0.01560017       0.002
  -0.11418850 -0.06592676  0.02184024       0.002
  -0.00000000  0.01883622  0.07800086       0.002
   0.01631264  0.02825433  0.08424092       0.004
   0.03262529  0.03767244  0.09048099       0.004
  -0.17943907 -0.08476298  0.00936010       0.004
  -0.16312643 -0.07534487  0.01560017       0.004
  -0.14681379 -0.06592676  0.02184024       0.004
  -0.13050114 -0.05650865  0.02808031       0.004
  -0.00000000  0.03767244  0.09048099       0.002
   0.01631264  0.04709054  0.09672106       0.004
  -0.19575172 -0.07534487  0.01560017       0.004
  -0.17943907 -0.06592676  0.02184024       0.004
  -0.16312643 -0.05650865  0.02808031       0.004
  -0.14681379 -0.04709054  0.03432038       0.004
  -0.00000000  0.05650865  0.10296113       0.002
  -0.21206436 -0.06592676  0.02184024       0.004
  -0.19575172 -0.05650865  0.02808031       0.004
  -0.17943907 -0.04709054  0.03432038       0.004
  -0.16312643 -0.03767244  0.04056044       0.004
   0.00000000 -0.18836218 -0.05928065       0.002
   0.01631264 -0.17894407 -0.05304058       0.004
   0.03262529 -0.16952596 -0.04680051       0.004
   0.00000000 -0.16952596 -0.04680051       0.002
   0.01631264 -0.16010785 -0.04056044       0.004
   0.00000000 -0.15068974 -0.03432038       0.002
  -0.00000000 -0.00000000  0.08424092       0.001
   0.01631264  0.00941811  0.09048099       0.002
   0.03262529  0.01883622  0.09672106       0.002
  -0.17943907 -0.10359920  0.01560017       0.002
  -0.16312643 -0.09418109  0.02184024       0.002
  -0.14681379 -0.08476298  0.02808031       0.002
  -0.00000000  0.01883622  0.09672106       0.002
   0.01631264  0.02825433  0.10296113       0.004
  -0.19575172 -0.09418109  0.02184024       0.004
  -0.17943907 -0.08476298  0.02808031       0.004
  -0.16312643 -0.07534487  0.03432038       0.004
  -0.00000000  0.03767244  0.10920120       0.002
  -0.21206436 -0.08476298  0.02808031       0.004
  -0.19575172 -0.07534487  0.03432038       0.004
  -0.17943907 -0.06592676  0.04056044       0.004
   0.00000000 -0.20719840 -0.05304058       0.002
   0.01631264 -0.19778029 -0.04680051       0.004
   0.00000000 -0.18836218 -0.04056044       0.002
  -0.00000000 -0.00000000  0.10296113       0.001
   0.01631264  0.00941811  0.10920120       0.002
  -0.19575172 -0.11301731  0.02808031       0.002
  -0.17943907 -0.10359920  0.03432038       0.002
  -0.00000000  0.01883622  0.11544127       0.002
  -0.21206436 -0.10359920  0.03432038       0.004
  -0.19575172 -0.09418109  0.04056044       0.004
   0.00000000 -0.22603461 -0.04680051       0.002
  -0.00000000 -0.00000000  0.12168133       0.001
  -0.21206436 -0.12243542  0.04056044       0.002
 
 k-points in reciprocal lattice and weights: K-Spacing Value to Generate K-Mesh: 0.02
   0.03571429  0.03571429  0.03571429       0.001
   0.10714286  0.03571429  0.03571429       0.002
   0.17857143  0.03571429  0.03571429       0.002
   0.25000000  0.03571429  0.03571429       0.002
   0.32142857  0.03571429  0.03571429       0.002
   0.39285714  0.03571429  0.03571429       0.002
   0.46428571  0.03571429  0.03571429       0.002
  -0.46428571  0.03571429  0.03571429       0.002
  -0.39285714  0.03571429  0.03571429       0.002
  -0.32142857  0.03571429  0.03571429       0.002
  -0.25000000  0.03571429  0.03571429       0.002
  -0.17857143  0.03571429  0.03571429       0.002
  -0.10714286  0.03571429  0.03571429       0.002
  -0.03571429  0.03571429  0.03571429       0.002
   0.10714286  0.10714286  0.03571429       0.002
   0.17857143  0.10714286  0.03571429       0.004
   0.25000000  0.10714286  0.03571429       0.004
   0.32142857  0.10714286  0.03571429       0.004
   0.39285714  0.10714286  0.03571429       0.004
   0.46428571  0.10714286  0.03571429       0.004
  -0.46428571  0.10714286  0.03571429       0.004
  -0.39285714  0.10714286  0.03571429       0.004
  -0.32142857  0.10714286  0.03571429       0.004
  -0.25000000  0.10714286  0.03571429       0.004
  -0.17857143  0.10714286  0.03571429       0.004
  -0.10714286  0.10714286  0.03571429       0.004
  -0.03571429  0.10714286  0.03571429       0.004
   0.17857143  0.17857143  0.03571429       0.002
   0.25000000  0.17857143  0.03571429       0.004
   0.32142857  0.17857143  0.03571429       0.004
   0.39285714  0.17857143  0.03571429       0.004
   0.46428571  0.17857143  0.03571429       0.004
  -0.46428571  0.17857143  0.03571429       0.004
  -0.39285714  0.17857143  0.03571429       0.004
  -0.32142857  0.17857143  0.03571429       0.004
  -0.25000000  0.17857143  0.03571429       0.004
  -0.17857143  0.17857143  0.03571429       0.004
  -0.10714286  0.17857143  0.03571429       0.004
  -0.03571429  0.17857143  0.03571429       0.004
   0.25000000  0.25000000  0.03571429       0.002
   0.32142857  0.25000000  0.03571429       0.004
   0.39285714  0.25000000  0.03571429       0.004
   0.46428571  0.25000000  0.03571429       0.004
  -0.46428571  0.25000000  0.03571429       0.004
  -0.39285714  0.25000000  0.03571429       0.004
  -0.32142857  0.25000000  0.03571429       0.004
  -0.25000000  0.25000000  0.03571429       0.004
  -0.17857143  0.25000000  0.03571429       0.004
  -0.10714286  0.25000000  0.03571429       0.004
  -0.03571429  0.25000000  0.03571429       0.004
   0.32142857  0.32142857  0.03571429       0.002
   0.39285714  0.32142857  0.03571429       0.004
   0.46428571  0.32142857  0.03571429       0.004
  -0.46428571  0.32142857  0.03571429       0.004
  -0.39285714  0.32142857  0.03571429       0.004
  -0.32142857  0.32142857  0.03571429       0.004
  -0.25000000  0.32142857  0.03571429       0.004
  -0.17857143  0.32142857  0.03571429       0.004
  -0.10714286  0.32142857  0.03571429       0.004
  -0.03571429  0.32142857  0.03571429       0.004
   0.39285714  0.39285714  0.03571429       0.002
   0.46428571  0.39285714  0.03571429       0.004
  -0.46428571  0.39285714  0.03571429       0.004
  -0.39285714  0.39285714  0.03571429       0.004
  -0.32142857  0.39285714  0.03571429       0.004
  -0.25000000  0.39285714  0.03571429       0.004
  -0.17857143  0.39285714  0.03571429       0.004
  -0.10714286  0.39285714  0.03571429       0.004
  -0.03571429  0.39285714  0.03571429       0.004
   0.46428571  0.46428571  0.03571429       0.002
  -0.46428571  0.46428571  0.03571429       0.004
  -0.39285714  0.46428571  0.03571429       0.004
  -0.32142857  0.46428571  0.03571429       0.004
  -0.25000000  0.46428571  0.03571429       0.004
  -0.17857143  0.46428571  0.03571429       0.004
  -0.10714286  0.46428571  0.03571429       0.004
  -0.03571429  0.46428571  0.03571429       0.004
  -0.46428571 -0.46428571  0.03571429       0.002
  -0.39285714 -0.46428571  0.03571429       0.004
  -0.32142857 -0.46428571  0.03571429       0.004
  -0.25000000 -0.46428571  0.03571429       0.004
  -0.17857143 -0.46428571  0.03571429       0.004
  -0.10714286 -0.46428571  0.03571429       0.004
  -0.39285714 -0.39285714  0.03571429       0.002
  -0.32142857 -0.39285714  0.03571429       0.004
  -0.25000000 -0.39285714  0.03571429       0.004
  -0.17857143 -0.39285714  0.03571429       0.004
  -0.10714286 -0.39285714  0.03571429       0.004
  -0.32142857 -0.32142857  0.03571429       0.002
  -0.25000000 -0.32142857  0.03571429       0.004
  -0.17857143 -0.32142857  0.03571429       0.004
  -0.10714286 -0.32142857  0.03571429       0.004
  -0.25000000 -0.25000000  0.03571429       0.002
  -0.17857143 -0.25000000  0.03571429       0.004
  -0.10714286 -0.25000000  0.03571429       0.004
  -0.17857143 -0.17857143  0.03571429       0.002
  -0.10714286 -0.17857143  0.03571429       0.004
  -0.10714286 -0.10714286  0.03571429       0.002
   0.10714286  0.10714286  0.10714286       0.001
   0.17857143  0.10714286  0.10714286       0.002
   0.25000000  0.10714286  0.10714286       0.002
   0.32142857  0.10714286  0.10714286       0.002
   0.39285714  0.10714286  0.10714286       0.002
   0.46428571  0.10714286  0.10714286       0.002
  -0.46428571  0.10714286  0.10714286       0.002
  -0.39285714  0.10714286  0.10714286       0.002
  -0.32142857  0.10714286  0.10714286       0.002
  -0.25000000  0.10714286  0.10714286       0.002
  -0.17857143  0.10714286  0.10714286       0.002
  -0.10714286  0.10714286  0.10714286       0.002
   0.17857143  0.17857143  0.10714286       0.002
   0.25000000  0.17857143  0.10714286       0.004
   0.32142857  0.17857143  0.10714286       0.004
   0.39285714  0.17857143  0.10714286       0.004
   0.46428571  0.17857143  0.10714286       0.004
  -0.46428571  0.17857143  0.10714286       0.004
  -0.39285714  0.17857143  0.10714286       0.004
  -0.32142857  0.17857143  0.10714286       0.004
  -0.25000000  0.17857143  0.10714286       0.004
  -0.17857143  0.17857143  0.10714286       0.004
  -0.10714286  0.17857143  0.10714286       0.004
   0.25000000  0.25000000  0.10714286       0.002
   0.32142857  0.25000000  0.10714286       0.004
   0.39285714  0.25000000  0.10714286       0.004
   0.46428571  0.25000000  0.10714286       0.004
  -0.46428571  0.25000000  0.10714286       0.004
  -0.39285714  0.25000000  0.10714286       0.004
  -0.32142857  0.25000000  0.10714286       0.004
  -0.25000000  0.25000000  0.10714286       0.004
  -0.17857143  0.25000000  0.10714286       0.004
  -0.10714286  0.25000000  0.10714286       0.004
   0.32142857  0.32142857  0.10714286       0.002
   0.39285714  0.32142857  0.10714286       0.004
   0.46428571  0.32142857  0.10714286       0.004
  -0.46428571  0.32142857  0.10714286       0.004
  -0.39285714  0.32142857  0.10714286       0.004
  -0.32142857  0.32142857  0.10714286       0.004
  -0.25000000  0.32142857  0.10714286       0.004
  -0.17857143  0.32142857  0.10714286       0.004
  -0.10714286  0.32142857  0.10714286       0.004
   0.39285714  0.39285714  0.10714286       0.002
   0.46428571  0.39285714  0.10714286       0.004
  -0.46428571  0.39285714  0.10714286       0.004
  -0.39285714  0.39285714  0.10714286       0.004
  -0.32142857  0.39285714  0.10714286       0.004
  -0.25000000  0.39285714  0.10714286       0.004
  -0.17857143  0.39285714  0.10714286       0.004
  -0.10714286  0.39285714  0.10714286       0.004
   0.46428571  0.46428571  0.10714286       0.002
  -0.46428571  0.46428571  0.10714286       0.004
  -0.39285714  0.46428571  0.10714286       0.004
  -0.32142857  0.46428571  0.10714286       0.004
  -0.25000000  0.46428571  0.10714286       0.004
  -0.17857143  0.46428571  0.10714286       0.004
  -0.10714286  0.46428571  0.10714286       0.004
  -0.46428571 -0.46428571  0.10714286       0.002
  -0.39285714 -0.46428571  0.10714286       0.004
  -0.32142857 -0.46428571  0.10714286       0.004
  -0.25000000 -0.46428571  0.10714286       0.004
  -0.17857143 -0.46428571  0.10714286       0.004
  -0.39285714 -0.39285714  0.10714286       0.002
  -0.32142857 -0.39285714  0.10714286       0.004
  -0.25000000 -0.39285714  0.10714286       0.004
  -0.17857143 -0.39285714  0.10714286       0.004
  -0.32142857 -0.32142857  0.10714286       0.002
  -0.25000000 -0.32142857  0.10714286       0.004
  -0.17857143 -0.32142857  0.10714286       0.004
  -0.25000000 -0.25000000  0.10714286       0.002
  -0.17857143 -0.25000000  0.10714286       0.004
  -0.17857143 -0.17857143  0.10714286       0.002
   0.17857143  0.17857143  0.17857143       0.001
   0.25000000  0.17857143  0.17857143       0.002
   0.32142857  0.17857143  0.17857143       0.002
   0.39285714  0.17857143  0.17857143       0.002
   0.46428571  0.17857143  0.17857143       0.002
  -0.46428571  0.17857143  0.17857143       0.002
  -0.39285714  0.17857143  0.17857143       0.002
  -0.32142857  0.17857143  0.17857143       0.002
  -0.25000000  0.17857143  0.17857143       0.002
  -0.17857143  0.17857143  0.17857143       0.002
   0.25000000  0.25000000  0.17857143       0.002
   0.32142857  0.25000000  0.17857143       0.004
   0.39285714  0.25000000  0.17857143       0.004
   0.46428571  0.25000000  0.17857143       0.004
  -0.46428571  0.25000000  0.17857143       0.004
  -0.39285714  0.25000000  0.17857143       0.004
  -0.32142857  0.25000000  0.17857143       0.004
  -0.25000000  0.25000000  0.17857143       0.004
  -0.17857143  0.25000000  0.17857143       0.004
   0.32142857  0.32142857  0.17857143       0.002
   0.39285714  0.32142857  0.17857143       0.004
   0.46428571  0.32142857  0.17857143       0.004
  -0.46428571  0.32142857  0.17857143       0.004
  -0.39285714  0.32142857  0.17857143       0.004
  -0.32142857  0.32142857  0.17857143       0.004
  -0.25000000  0.32142857  0.17857143       0.004
  -0.17857143  0.32142857  0.17857143       0.004
   0.39285714  0.39285714  0.17857143       0.002
   0.46428571  0.39285714  0.17857143       0.004
  -0.46428571  0.39285714  0.17857143       0.004
  -0.39285714  0.39285714  0.17857143       0.004
  -0.32142857  0.39285714  0.17857143       0.004
  -0.25000000  0.39285714  0.17857143       0.004
  -0.17857143  0.39285714  0.17857143       0.004
   0.46428571  0.46428571  0.17857143       0.002
  -0.46428571  0.46428571  0.17857143       0.004
  -0.39285714  0.46428571  0.17857143       0.004
  -0.32142857  0.46428571  0.17857143       0.004
  -0.25000000  0.46428571  0.17857143       0.004
  -0.17857143  0.46428571  0.17857143       0.004
  -0.46428571 -0.46428571  0.17857143       0.002
  -0.39285714 -0.46428571  0.17857143       0.004
  -0.32142857 -0.46428571  0.17857143       0.004
  -0.25000000 -0.46428571  0.17857143       0.004
  -0.39285714 -0.39285714  0.17857143       0.002
  -0.32142857 -0.39285714  0.17857143       0.004
  -0.25000000 -0.39285714  0.17857143       0.004
  -0.32142857 -0.32142857  0.17857143       0.002
  -0.25000000 -0.32142857  0.17857143       0.004
  -0.25000000 -0.25000000  0.17857143       0.002
   0.25000000  0.25000000  0.25000000       0.001
   0.32142857  0.25000000  0.25000000       0.002
   0.39285714  0.25000000  0.25000000       0.002
   0.46428571  0.25000000  0.25000000       0.002
  -0.46428571  0.25000000  0.25000000       0.002
  -0.39285714  0.25000000  0.25000000       0.002
  -0.32142857  0.25000000  0.25000000       0.002
  -0.25000000  0.25000000  0.25000000       0.002
   0.32142857  0.32142857  0.25000000       0.002
   0.39285714  0.32142857  0.25000000       0.004
   0.46428571  0.32142857  0.25000000       0.004
  -0.46428571  0.32142857  0.25000000       0.004
  -0.39285714  0.32142857  0.25000000       0.004
  -0.32142857  0.32142857  0.25000000       0.004
  -0.25000000  0.32142857  0.25000000       0.004
   0.39285714  0.39285714  0.25000000       0.002
   0.46428571  0.39285714  0.25000000       0.004
  -0.46428571  0.39285714  0.25000000       0.004
  -0.39285714  0.39285714  0.25000000       0.004
  -0.32142857  0.39285714  0.25000000       0.004
  -0.25000000  0.39285714  0.25000000       0.004
   0.46428571  0.46428571  0.25000000       0.002
  -0.46428571  0.46428571  0.25000000       0.004
  -0.39285714  0.46428571  0.25000000       0.004
  -0.32142857  0.46428571  0.25000000       0.004
  -0.25000000  0.46428571  0.25000000       0.004
  -0.46428571 -0.46428571  0.25000000       0.002
  -0.39285714 -0.46428571  0.25000000       0.004
  -0.32142857 -0.46428571  0.25000000       0.004
  -0.39285714 -0.39285714  0.25000000       0.002
  -0.32142857 -0.39285714  0.25000000       0.004
  -0.32142857 -0.32142857  0.25000000       0.002
   0.32142857  0.32142857  0.32142857       0.001
   0.39285714  0.32142857  0.32142857       0.002
   0.46428571  0.32142857  0.32142857       0.002
  -0.46428571  0.32142857  0.32142857       0.002
  -0.39285714  0.32142857  0.32142857       0.002
  -0.32142857  0.32142857  0.32142857       0.002
   0.39285714  0.39285714  0.32142857       0.002
   0.46428571  0.39285714  0.32142857       0.004
  -0.46428571  0.39285714  0.32142857       0.004
  -0.39285714  0.39285714  0.32142857       0.004
  -0.32142857  0.39285714  0.32142857       0.004
   0.46428571  0.46428571  0.32142857       0.002
  -0.46428571  0.46428571  0.32142857       0.004
  -0.39285714  0.46428571  0.32142857       0.004
  -0.32142857  0.46428571  0.32142857       0.004
  -0.46428571 -0.46428571  0.32142857       0.002
  -0.39285714 -0.46428571  0.32142857       0.004
  -0.39285714 -0.39285714  0.32142857       0.002
   0.39285714  0.39285714  0.39285714       0.001
   0.46428571  0.39285714  0.39285714       0.002
  -0.46428571  0.39285714  0.39285714       0.002
  -0.39285714  0.39285714  0.39285714       0.002
   0.46428571  0.46428571  0.39285714       0.002
  -0.46428571  0.46428571  0.39285714       0.004
  -0.39285714  0.46428571  0.39285714       0.004
  -0.46428571 -0.46428571  0.39285714       0.002
   0.46428571  0.46428571  0.46428571       0.001
  -0.46428571  0.46428571  0.46428571       0.002
 
 position of ions in fractional coordinates (direct lattice) 
   0.23362445  0.23362445  0.23362445
   0.76637555  0.76637555  0.76637555
 
 position of ions in cartesian coordinates  (Angst):
   0.00000000  0.00000000  2.67424321
  -0.00000000  0.00000000  8.77251774
 


--------------------------------------------------------------------------------------------------------


 k-point   1 :   0.0357 0.0357 0.0357  plane waves:    1597
 k-point   2 :   0.1071 0.0357 0.0357  plane waves:    1604
 k-point   3 :   0.1786 0.0357 0.0357  plane waves:    1611
 k-point   4 :   0.2500 0.0357 0.0357  plane waves:    1609
 k-point   5 :   0.3214 0.0357 0.0357  plane waves:    1608
 k-point   6 :   0.3929 0.0357 0.0357  plane waves:    1604
 k-point   7 :   0.4643 0.0357 0.0357  plane waves:    1595
 k-point   8 :  -0.4643 0.0357 0.0357  plane waves:    1598
 k-point   9 :  -0.3929 0.0357 0.0357  plane waves:    1607
 k-point  10 :  -0.3214 0.0357 0.0357  plane waves:    1616
 k-point  11 :  -0.2500 0.0357 0.0357  plane waves:    1614
 k-point  12 :  -0.1786 0.0357 0.0357  plane waves:    1609
 k-point  13 :  -0.1071 0.0357 0.0357  plane waves:    1608
 k-point  14 :  -0.0357 0.0357 0.0357  plane waves:    1601
 k-point  15 :   0.1071 0.1071 0.0357  plane waves:    1594
 k-point  16 :   0.1786 0.1071 0.0357  plane waves:    1602
 k-point  17 :   0.2500 0.1071 0.0357  plane waves:    1609
 k-point  18 :   0.3214 0.1071 0.0357  plane waves:    1610
 k-point  19 :   0.3929 0.1071 0.0357  plane waves:    1604
 k-point  20 :   0.4643 0.1071 0.0357  plane waves:    1605
 k-point  21 :  -0.4643 0.1071 0.0357  plane waves:    1602
 k-point  22 :  -0.3929 0.1071 0.0357  plane waves:    1610
 k-point  23 :  -0.3214 0.1071 0.0357  plane waves:    1610
 k-point  24 :  -0.2500 0.1071 0.0357  plane waves:    1616
 k-point  25 :  -0.1786 0.1071 0.0357  plane waves:    1607
 k-point  26 :  -0.1071 0.1071 0.0357  plane waves:    1612
 k-point  27 :  -0.0357 0.1071 0.0357  plane waves:    1607
 k-point  28 :   0.1786 0.1786 0.0357  plane waves:    1606
 k-point  29 :   0.2500 0.1786 0.0357  plane waves:    1609
 k-point  30 :   0.3214 0.1786 0.0357  plane waves:    1607
 k-point  31 :   0.3929 0.1786 0.0357  plane waves:    1612
 k-point  32 :   0.4643 0.1786 0.0357  plane waves:    1611
 k-point  33 :  -0.4643 0.1786 0.0357  plane waves:    1610
 k-point  34 :  -0.3929 0.1786 0.0357  plane waves:    1610
 k-point  35 :  -0.3214 0.1786 0.0357  plane waves:    1607
 k-point  36 :  -0.2500 0.1786 0.0357  plane waves:    1615
 k-point  37 :  -0.1786 0.1786 0.0357  plane waves:    1614
 k-point  38 :  -0.1071 0.1786 0.0357  plane waves:    1616
 k-point  39 :  -0.0357 0.1786 0.0357  plane waves:    1613
 k-point  40 :   0.2500 0.2500 0.0357  plane waves:    1606
 k-point  41 :   0.3214 0.2500 0.0357  plane waves:    1602
 k-point  42 :   0.3929 0.2500 0.0357  plane waves:    1611
 k-point  43 :   0.4643 0.2500 0.0357  plane waves:    1613
 k-point  44 :  -0.4643 0.2500 0.0357  plane waves:    1613
 k-point  45 :  -0.3929 0.2500 0.0357  plane waves:    1609
 k-point  46 :  -0.3214 0.2500 0.0357  plane waves:    1607
 k-point  47 :  -0.2500 0.2500 0.0357  plane waves:    1609
 k-point  48 :  -0.1786 0.2500 0.0357  plane waves:    1615
 k-point  49 :  -0.1071 0.2500 0.0357  plane waves:    1613
 k-point  50 :  -0.0357 0.2500 0.0357  plane waves:    1614
 k-point  51 :   0.3214 0.3214 0.0357  plane waves:    1607
 k-point  52 :   0.3929 0.3214 0.0357  plane waves:    1614
 k-point  53 :   0.4643 0.3214 0.0357  plane waves:    1615
 k-point  54 :  -0.4643 0.3214 0.0357  plane waves:    1611
 k-point  55 :  -0.3929 0.3214 0.0357  plane waves:    1604
 k-point  56 :  -0.3214 0.3214 0.0357  plane waves:    1611
 k-point  57 :  -0.2500 0.3214 0.0357  plane waves:    1611
 k-point  58 :  -0.1786 0.3214 0.0357  plane waves:    1611
 k-point  59 :  -0.1071 0.3214 0.0357  plane waves:    1612
 k-point  60 :  -0.0357 0.3214 0.0357  plane waves:    1615
 k-point  61 :   0.3929 0.3929 0.0357  plane waves:    1613
 k-point  62 :   0.4643 0.3929 0.0357  plane waves:    1611
 k-point  63 :  -0.4643 0.3929 0.0357  plane waves:    1615
 k-point  64 :  -0.3929 0.3929 0.0357  plane waves:    1610
 k-point  65 :  -0.3214 0.3929 0.0357  plane waves:    1611
 k-point  66 :  -0.2500 0.3929 0.0357  plane waves:    1614
 k-point  67 :  -0.1786 0.3929 0.0357  plane waves:    1609
 k-point  68 :  -0.1071 0.3929 0.0357  plane waves:    1611
 k-point  69 :  -0.0357 0.3929 0.0357  plane waves:    1610
 k-point  70 :   0.4643 0.4643 0.0357  plane waves:    1615
 k-point  71 :  -0.4643 0.4643 0.0357  plane waves:    1617
 k-point  72 :  -0.3929 0.4643 0.0357  plane waves:    1614
 k-point  73 :  -0.3214 0.4643 0.0357  plane waves:    1615
 k-point  74 :  -0.2500 0.4643 0.0357  plane waves:    1615
 k-point  75 :  -0.1786 0.4643 0.0357  plane waves:    1611
 k-point  76 :  -0.1071 0.4643 0.0357  plane waves:    1606
 k-point  77 :  -0.0357 0.4643 0.0357  plane waves:    1599
 k-point  78 :  -0.4643-0.4643 0.0357  plane waves:    1616
 k-point  79 :  -0.3929-0.4643 0.0357  plane waves:    1617
 k-point  80 :  -0.3214-0.4643 0.0357  plane waves:    1619
 k-point  81 :  -0.2500-0.4643 0.0357  plane waves:    1616
 k-point  82 :  -0.1786-0.4643 0.0357  plane waves:    1618
 k-point  83 :  -0.1071-0.4643 0.0357  plane waves:    1612
 k-point  84 :  -0.3929-0.3929 0.0357  plane waves:    1609
 k-point  85 :  -0.3214-0.3929 0.0357  plane waves:    1615
 k-point  86 :  -0.2500-0.3929 0.0357  plane waves:    1612
 k-point  87 :  -0.1786-0.3929 0.0357  plane waves:    1613
 k-point  88 :  -0.1071-0.3929 0.0357  plane waves:    1622
 k-point  89 :  -0.3214-0.3214 0.0357  plane waves:    1612
 k-point  90 :  -0.2500-0.3214 0.0357  plane waves:    1614
 k-point  91 :  -0.1786-0.3214 0.0357  plane waves:    1615
 k-point  92 :  -0.1071-0.3214 0.0357  plane waves:    1615
 k-point  93 :  -0.2500-0.2500 0.0357  plane waves:    1613
 k-point  94 :  -0.1786-0.2500 0.0357  plane waves:    1606
 k-point  95 :  -0.1071-0.2500 0.0357  plane waves:    1614
 k-point  96 :  -0.1786-0.1786 0.0357  plane waves:    1605
 k-point  97 :  -0.1071-0.1786 0.0357  plane waves:    1612
 k-point  98 :  -0.1071-0.1071 0.0357  plane waves:    1608
 k-point  99 :   0.1071 0.1071 0.1071  plane waves:    1586
 k-point 100 :   0.1786 0.1071 0.1071  plane waves:    1587
 k-point 101 :   0.2500 0.1071 0.1071  plane waves:    1605
 k-point 102 :   0.3214 0.1071 0.1071  plane waves:    1608
 k-point 103 :   0.3929 0.1071 0.1071  plane waves:    1605
 k-point 104 :   0.4643 0.1071 0.1071  plane waves:    1602
 k-point 105 :  -0.4643 0.1071 0.1071  plane waves:    1599
 k-point 106 :  -0.3929 0.1071 0.1071  plane waves:    1600
 k-point 107 :  -0.3214 0.1071 0.1071  plane waves:    1605
 k-point 108 :  -0.2500 0.1071 0.1071  plane waves:    1614
 k-point 109 :  -0.1786 0.1071 0.1071  plane waves:    1620
 k-point 110 :  -0.1071 0.1071 0.1071  plane waves:    1616
 k-point 111 :   0.1786 0.1786 0.1071  plane waves:    1586
 k-point 112 :   0.2500 0.1786 0.1071  plane waves:    1597
 k-point 113 :   0.3214 0.1786 0.1071  plane waves:    1602
 k-point 114 :   0.3929 0.1786 0.1071  plane waves:    1611
 k-point 115 :   0.4643 0.1786 0.1071  plane waves:    1606
 k-point 116 :  -0.4643 0.1786 0.1071  plane waves:    1601
 k-point 117 :  -0.3929 0.1786 0.1071  plane waves:    1606
 k-point 118 :  -0.3214 0.1786 0.1071  plane waves:    1610
 k-point 119 :  -0.2500 0.1786 0.1071  plane waves:    1616
[...]
      2      -1.8284      2.00000
      3       2.3415      2.00000
      4       3.8523      2.00000
      5       5.7814      2.00000
      6       7.5569      0.00000
      7       9.4558      0.00000
      8      11.1160      0.00000
      9      12.4548      0.00000
     10      12.9521      0.00000
     11      14.5317      0.00000
     12      16.0573      0.00000
     13      17.8916      0.00000
     14      18.4631      0.00000
     15      19.2347      0.00000
     16      19.7659      0.00000

 k-point   263 :      -0.3214    0.3929    0.3214
  band No.  band energies     occupation 
      1      -3.4647      2.00000
      2      -1.9403      2.00000
      3       1.8940      2.00000
      4       3.4511      2.00000
      5       5.2295      2.00000
      6       8.1891      0.00000
      7       9.8678      0.00000
      8      11.7532      0.00000
      9      11.8869      0.00000
     10      13.2079      0.00000
     11      14.9684      0.00000
     12      16.4231      0.00000
     13      18.1176      0.00000
     14      18.7816      0.00000
     15      19.4479      0.00000
     16      19.9630      0.00000

 k-point   264 :       0.4643    0.4643    0.3214
  band No.  band energies     occupation 
      1      -4.2369      2.00000
      2      -1.7047      2.00000
      3       3.8116      2.00000
      4       4.5463      2.00000
      5       5.4904      2.00000
      6       8.0727      0.00000
      7       8.2237      0.00000
      8       9.2767      0.00000
      9      11.9176      0.00000
     10      14.7922      0.00000
     11      15.4727      0.00000
     12      15.7459      0.00000
     13      16.0822      0.00000
     14      17.6693      0.00000
     15      18.2524      0.00000
     16      19.4627      0.00000

 k-point   265 :      -0.4643    0.4643    0.3214
  band No.  band energies     occupation 
      1      -4.0336      2.00000
      2      -1.7877      2.00000
      3       3.1842      2.00000
      4       4.0279      2.00000
      5       5.7318      2.00000
      6       7.5868      0.00000
      7       9.2430      0.00000
      8       9.9518      0.00000
      9      11.8962      0.00000
     10      14.1117      0.00000
     11      15.5548      0.00000
     12      15.8509      0.00000
     13      17.0285      0.00000
     14      17.4134      0.00000
     15      18.8572      0.00000
     16      19.3537      0.00000

 k-point   266 :      -0.3929    0.4643    0.3214
  band No.  band energies     occupation 
      1      -3.7795      2.00000
      2      -1.8398      2.00000
      3       2.5750      2.00000
      4       3.3701      2.00000
      5       6.2804      2.00000
      6       7.0731      0.00000
      7      10.1952      0.00000
      8      10.6114      0.00000
      9      12.1618      0.00000
     10      13.0489      0.00000
     11      15.6685      0.00000
     12      16.3426      0.00000
     13      17.1721      0.00000
     14      17.8881      0.00000
     15      18.7712      0.00000
     16      19.7349      0.00000

 k-point   267 :      -0.3214    0.4643    0.3214
  band No.  band energies     occupation 
      1      -3.5051      2.00000
      2      -1.8833      2.00000
      3       2.0882      2.00000
      4       2.8856      2.00000
      5       6.0730      2.00000
      6       7.3684      0.00000
      7      10.6090      0.00000
      8      11.2800      0.00000
      9      12.2395      0.00000
     10      12.7697      0.00000
     11      15.9030      0.00000
     12      16.7072      0.00000
     13      17.3580      0.00000
     14      17.6005      0.00000
     15      19.6446      0.00000
     16      19.8281      0.00000

 k-point   268 :      -0.4643   -0.4643    0.3214
  band No.  band energies     occupation 
      1      -3.9009      2.00000
      2      -1.8353      2.00000
      3       2.7706      2.00000
      4       4.2541      2.00000
      5       4.9849      2.00000
      6       8.6466      0.00000
      7       8.7772      0.00000
      8      10.5237      0.00000
      9      11.7083      0.00000
     10      14.3956      0.00000
     11      14.8726      0.00000
     12      16.5392      0.00000
     13      17.2731      0.00000
     14      18.0400      0.00000
     15      18.2348      0.00000
     16      18.9435      0.00000

 k-point   269 :      -0.3929   -0.4643    0.3214
  band No.  band energies     occupation 
      1      -3.7194      2.00000
      2      -1.8584      2.00000
      3       2.3488      2.00000
      4       3.6285      2.00000
      5       5.4083      2.00000
      6       8.0104      0.00000
      7       9.7683      0.00000
      8      11.0820      0.00000
      9      11.8177      0.00000
     10      13.4935      0.00000
     11      15.2850      0.00000
     12      16.6711      0.00000
     13      17.5897      0.00000
     14      17.7862      0.00000
     15      18.6629      0.00000
     16      19.4586      0.00000

 k-point   270 :      -0.3929   -0.3929    0.3214
  band No.  band energies     occupation 
      1      -3.6122      2.00000
      2      -1.8853      2.00000
      3       2.0292      2.00000
      4       4.0605      2.00000
      5       4.6999      2.00000
      6       8.9444      0.00000
      7       9.0782      0.00000
      8      11.5521      0.00000
      9      11.7535      0.00000
     10      13.8999      0.00000
     11      14.4035      0.00000
     12      16.4759      0.00000
     13      18.3501      0.00000
     14      18.5007      0.00000
     15      18.9024      0.00000
     16      19.2569      0.00000

 k-point   271 :       0.3929    0.3929    0.3929
  band No.  band energies     occupation 
      1      -4.5024      2.00000
      2      -1.6238      2.00000
      3       5.3529      2.00000
      4       5.3529      2.00000
      5       6.0782      2.00000
      6       7.1330      0.00000
      7       7.1330      0.00000
      8       7.8638      0.00000
      9      12.8746      0.00000
     10      14.1192      0.00000
     11      14.1192      0.00000
     12      16.6112      0.00000
     13      17.1154      0.00000
     14      17.1154      0.00000
     15      18.3520      0.00000
     16      18.3520      0.00000

 k-point   272 :       0.4643    0.3929    0.3929
  band No.  band energies     occupation 
      1      -4.3603      2.00000
      2      -1.7714      2.00000
      3       4.4934      2.00000
      4       5.4272      2.00000
      5       6.4584      2.00000
      6       6.9874      0.00000
      7       6.9932      0.00000
      8       8.5713      0.00000
      9      12.9078      0.00000
     10      13.9396      0.00000
     11      15.1770      0.00000
     12      15.5369      0.00000
     13      16.9428      0.00000
     14      17.4092      0.00000
     15      18.1414      0.00000
     16      19.4063      0.00000

 k-point   273 :      -0.4643    0.3929    0.3929
  band No.  band energies     occupation 
      1      -4.1493      2.00000
      2      -1.8573      2.00000
      3       3.5122      2.00000
      4       5.0095      2.00000
      5       5.9113      2.00000
      6       7.4820      0.00000
      7       7.7144      0.00000
      8       9.6520      0.00000
      9      12.8484      0.00000
     10      13.9120      0.00000
     11      14.2305      0.00000
     12      16.3337      0.00000
     13      16.9838      0.00000
     14      17.7946      0.00000
     15      18.2241      0.00000
     16      20.2131      0.00000

 k-point   274 :      -0.3929    0.3929    0.3929
  band No.  band energies     occupation 
      1      -3.8880      2.00000
      2      -1.8901      2.00000
      3       2.6665      2.00000
      4       4.5049      2.00000
      5       5.2784      2.00000
      6       8.1929      0.00000
      7       8.5010      0.00000
      8      10.7125      0.00000
      9      12.4322      0.00000
     10      13.6647      0.00000
     11      14.0587      0.00000
     12      16.4462      0.00000
     13      17.7592      0.00000
     14      18.2721      0.00000
     15      18.7074      0.00000
     16      19.2930      0.00000

 k-point   275 :       0.4643    0.4643    0.3929
  band No.  band energies     occupation 
      1      -4.2772      2.00000
      2      -1.9000      2.00000
      3       4.7483      2.00000
      4       5.0609      2.00000
      5       6.2292      2.00000
      6       7.0238      0.00000
      7       7.4197      0.00000
      8       8.3526      0.00000
      9      12.9165      0.00000
     10      14.5877      0.00000
     11      15.2256      0.00000
     12      15.7634      0.00000
     13      15.9613      0.00000
     14      17.4436      0.00000
     15      18.5870      0.00000
     16      19.4577      0.00000

 k-point   276 :      -0.4643    0.4643    0.3929
  band No.  band energies     occupation 
      1      -4.1320      2.00000
      2      -1.9533      2.00000
      3       3.9363      2.00000
      4       4.7042      2.00000
      5       6.3849      2.00000
      6       6.7834      0.00282
      7       8.1639      0.00000
      8       9.1243      0.00000
      9      12.7838      0.00000
     10      14.1699      0.00000
     11      15.0904      0.00000
     12      15.8090      0.00000
     13      16.7405      0.00000
     14      17.6353      0.00000
     15      18.4923      0.00000
     16      19.6196      0.00000

 k-point   277 :      -0.3929    0.4643    0.3929
  band No.  band energies     occupation 
      1      -3.9388      2.00000
      2      -1.9333      2.00000
      3       3.0798      2.00000
      4       4.1248      2.00000
      5       6.0242      2.00000
      6       7.2250      0.00000
      7       9.0729      0.00000
      8      10.1181      0.00000
      9      12.4872      0.00000
     10      13.4247      0.00000
     11      15.0756      0.00000
     12      16.2767      0.00000
     13      17.5794      0.00000
     14      17.8364      0.00000
     15      18.5815      0.00000
     16      18.9386      0.00000

 k-point   278 :      -0.4643   -0.4643    0.3929
  band No.  band energies     occupation 
      1      -4.0594      2.00000
      2      -1.9785      2.00000
      3       3.6401      2.00000
      4       4.7511      2.00000
      5       5.6416      2.00000
      6       7.8202      0.00000
      7       7.9324      0.00000
      8       9.4469      0.00000
      9      12.6095      0.00000
     10      14.3401      0.00000
     11      14.7624      0.00000
     12      16.1522      0.00000
     13      16.7699      0.00000
     14      17.8895      0.00000
     15      18.8211      0.00000
     16      18.9178      0.00000

 k-point   279 :       0.4643    0.4643    0.4643
  band No.  band energies     occupation 
      1      -4.2569      2.00000
      2      -2.0191      2.00000
      3       5.4412      2.00000
      4       5.4412      2.00000
      5       6.1374      2.00000
      6       6.9075      0.00000
      7       6.9075      0.00000
      8       7.7465      0.00000
      9      13.4970      0.00000
     10      14.9696      0.00000
     11      14.9696      0.00000
     12      15.9319      0.00000
     13      16.0876      0.00000
     14      16.0876      0.00000
     15      19.5858      0.00000
     16      19.5858      0.00000

 k-point   280 :      -0.4643    0.4643    0.4643
  band No.  band energies     occupation 
      1      -4.1815      2.00000
      2      -2.0455      2.00000
      3       4.6251      2.00000
      4       5.2553      2.00000
      5       6.3045      2.00000
      6       7.0154      0.00000
      7       7.1257      0.00000
      8       8.3985      0.00000
      9      13.3366      0.00000
     10      14.8026      0.00000
     11      14.8475      0.00000
     12      15.7152      0.00000
     13      16.3677      0.00000
     14      16.6945      0.00000
     15      19.2252      0.00000
     16      19.8677      0.00000


--------------------------------------------------------------------------------------------------------


 soft charge-density along one line, spin component           1
         0         1         2         3         4         5         6         7         8         9
 total charge-density along one line
 
 pseudopotential strength for first ion, spin component:           1
 39.816 -67.386  -0.000  -0.033  -0.000  -0.000  -0.053  -0.000
-67.386 116.470   0.000   0.055   0.000   0.000   0.088   0.000
 -0.000   0.000   9.195   0.000  -0.000  14.643   0.000  -0.000
 -0.033   0.055   0.000   9.193  -0.000   0.000  14.640  -0.000
 -0.000   0.000  -0.000  -0.000   9.195  -0.000  -0.000  14.643
 -0.000   0.000  14.643   0.000  -0.000  23.329   0.000  -0.000
 -0.053   0.088   0.000  14.640  -0.000   0.000  23.324   0.000
 -0.000   0.000  -0.000  -0.000  14.643  -0.000   0.000  23.329
 -0.000   0.000  -0.000   0.000  -0.000  -0.000   0.000  -0.001
  0.000  -0.000  -0.004  -0.000   0.000  -0.006  -0.000   0.000
 -0.002   0.003   0.000  -0.005   0.000   0.000  -0.009   0.000
  0.000   0.000   0.000  -0.000  -0.004   0.000  -0.000  -0.006
 -0.000   0.000  -0.000  -0.000  -0.000  -0.001  -0.000  -0.000
 total augmentation occupancy for first ion, spin component:           1
  1.971   0.007   0.000   0.123   0.000  -0.000  -0.027  -0.000  -0.000  -0.000  -0.002   0.000   0.000
  0.007   0.006  -0.000  -0.047   0.000   0.000   0.011  -0.000   0.000  -0.000  -0.000   0.000   0.000
  0.000  -0.000   2.633   0.000  -0.000  -0.670  -0.000   0.000  -0.000  -0.089  -0.000   0.000   0.061
  0.123  -0.047   0.000   2.598  -0.000  -0.000  -0.631   0.000  -0.000  -0.000  -0.004   0.000   0.000
  0.000   0.000  -0.000  -0.000   2.633   0.000  -0.000  -0.670   0.061   0.000   0.000  -0.089   0.000
 -0.000   0.000  -0.670  -0.000   0.000   0.198   0.000  -0.000   0.000   0.022   0.000  -0.000  -0.015
 -0.027   0.011  -0.000  -0.631   0.000   0.000   0.182   0.000   0.000   0.000   0.001   0.000  -0.000
  0.000  -0.000   0.000  -0.000  -0.670  -0.000   0.000   0.198  -0.015  -0.000  -0.000   0.022  -0.000
  0.000  -0.000  -0.000   0.000   0.061   0.000   0.000  -0.015   0.010   0.000   0.000  -0.007  -0.000
  0.000  -0.000  -0.089  -0.000   0.000   0.022   0.000  -0.000   0.000   0.014   0.000  -0.000  -0.007
 -0.002  -0.000  -0.000  -0.004   0.000   0.000   0.001  -0.000   0.000   0.000   0.005   0.000  -0.000
  0.000  -0.000   0.000  -0.000  -0.089  -0.000   0.000   0.022  -0.007  -0.000  -0.000   0.014  -0.000
  0.000   0.000   0.061   0.000   0.000  -0.015  -0.000  -0.000  -0.000  -0.007  -0.000  -0.000   0.010


------------------------ aborting loop because EDIFF is reached ----------------------------------------


    CHARGE:  cpu time      0.0476: real time      0.0479
    FORLOC:  cpu time      0.0004: real time      0.0012
    FORNL :  cpu time      0.0499: real time      0.0502
    STRESS:  cpu time      0.2458: real time      0.2482
    FORCOR:  cpu time      0.0114: real time      0.0115
    FORHAR:  cpu time      0.0028: real time      0.0028
    MIXING:  cpu time      0.0005: real time      0.0006
    OFIELD:  cpu time      0.0002: real time      0.0002

  FORCE on cell =-STRESS in cart. coord.  units (eV):
  Direction    XX          YY          ZZ          XY          YZ          ZX
  --------------------------------------------------------------------------------------
  Alpha Z    -3.76286    -3.76286    -3.76286
  Ewald    -105.03583  -105.03583  -110.93093     0.00000     0.00000    -0.00000
  Hartree     4.78463     4.78463     3.32899    -0.00000     0.00000     0.00000
  E(xc)     -39.99311   -39.99311   -40.02301     0.00000    -0.00000     0.00000
  Local     -53.90202   -53.90202   -48.09818     0.00000    -0.00000    -0.00000
  n-local   165.54834   165.70472   166.09436    -0.82954    -1.24493     0.91274
  augment   -34.22604   -34.22604   -34.52496    -0.00000    -0.00000    -0.00000
  Kinetic    65.08352    67.94804    67.94536    -2.08645    -3.51596     0.92190
  Fock        0.00000     0.00000     0.00000     0.00000     0.00000     0.00000
  -------------------------------------------------------------------------------------
  Total       0.00707     0.00707     0.02877    -0.00000     0.00000     0.00000
  in kB       0.17875     0.17875     0.72751    -0.00000     0.00000     0.00000
  external pressure =        0.36 kB  Pullay stress =        0.00 kB


 VOLUME and BASIS-vectors are now :
 -----------------------------------------------------------------------------
  energy-cutoff  :      500.00
  volume of cell :       63.36
      direct lattice vectors                 reciprocal lattice vectors
     2.189362291  1.264028908  3.815586982     0.228377004  0.131853525  0.087360958
    -2.189362291  1.264028908  3.815586982    -0.228377004  0.131853525  0.087360958
     0.000000000 -2.528057816  3.815586982     0.000000000 -0.263707049  0.087360958

  length of vectors
     4.577093001  4.577093001  4.577093001     0.277800908  0.277800908  0.277800908


 FORCES acting on ions
    electron-ion (+dipol)            ewald-force                    non-local-force                 convergence-correction
 -----------------------------------------------------------------------------------------------
   0.570E-13 -.717E-09 -.518E+01   -.258E-15 0.392E-11 0.993E+01   0.534E-17 -.157E-16 -.476E+01   0.777E-15 -.245E-15 0.422E-03
   0.952E-14 0.717E-09 0.518E+01   0.205E-15 -.392E-11 -.993E+01   -.130E-16 0.873E-17 0.476E+01   -.572E-15 0.133E-14 -.422E-03
 -----------------------------------------------------------------------------------------------
   0.666E-13 0.914E-13 -.166E-12   -.530E-16 0.487E-15 0.000E+00   -.770E-17 -.696E-17 -.888E-15   0.205E-15 0.109E-14 0.336E-15
 
 
 POSITION                                       TOTAL-FORCE (eV/Angst)
 -----------------------------------------------------------------------------------
      0.00000      0.00000      2.67424         0.000000      0.000000     -0.011327
     -0.00000      0.00000      8.77252        -0.000000     -0.000000      0.011327
 -----------------------------------------------------------------------------------
    total drift:                                0.000000      0.000000     -0.000000


--------------------------------------------------------------------------------------------------------



  FREE ENERGIE OF THE ION-ELECTRON SYSTEM (eV)
  ---------------------------------------------------
  free  energy   TOTEN  =        -8.27303303 eV

  energy  without entropy=       -8.27288086  energy(sigma->0) =       -8.27295695
 


--------------------------------------------------------------------------------------------------------


    POTLOK:  cpu time      0.0169: real time      0.0171


--------------------------------------------------------------------------------------------------------


     LOOP+:  cpu time     27.3457: real time     27.7243
    4ORBIT:  cpu time      0.0000: real time      0.0000

 total amount of memory used by VASP MPI-rank0    39370. kBytes
=======================================================================

   base      :      30000. kBytes
   nonl-proj :       6063. kBytes
   fftplans  :        524. kBytes
   grid      :        768. kBytes
   one-center:          8. kBytes
   wavefun   :       2007. kBytes
 
  
  
 General timing and accounting informations for this job:
 ========================================================
  
                  Total CPU time used (sec):       29.139
                            User time (sec):       25.064
                          System time (sec):        4.075
                         Elapsed time (sec):       30.316
  
                   Maximum memory used (kb):      148740.
                   Average memory used (kb):          N/A
  
                          Minor page faults:        17252
                          Major page faults:         1696
                 Voluntary context switches:          636
