 vasp.6.3.0 20Jan22 (build Oct 14 2024 11:24:38) complex                        
  
 executed on             LinuxIFC date 2025.05.01  23:18:12
 running on   64 total cores
 distrk:  each k-point on   64 cores,    1 groups
 distr:  one band on NCORE=   8 cores,    8 groups


--------------------------------------------------------------------------------------------------------


 INCAR:
   ISTART = 0            (Read existing wavefunction
   ISPIN = 1            (Non-Spin polarised DFT)
   LREAL = .FALSE.       (Projection operators: automatic)
   ENCUT = 500          (Cut-off energy for plane wave basis set, in eV)
   PREC = Accurate     (Precision level)
   LWAVE = .FALSE.       (Write WAVECAR or not)
   LCHARG = .FALSE.       (Write CHGCAR or not)
   NSW = 0
   IBRION = -1
   ISMEAR = 0            (gaussian smearing method)
   SIGMA = 0.05         (please check the width of the smearing)
   NELM = 60           (Max electronic SCF steps)
   EDIFF = 1E-06        (SCF energy convergence
   NCORE = 8             (square root of total cores)

 POTCAR:    PAW_PBE Mn_pv 02Aug2007               
 POTCAR:    PAW_PBE Mn_pv 02Aug2007               
   VRHFIN =Mn: 3p4s3d                                                                               
   LEXCH  = PE                                                                                      
   EATOM  =  2025.2664 eV,  148.8529 Ry                                                             
                                                                                                    
   TITEL  = PAW_PBE Mn_pv 02Aug2007                                                                 
   LULTRA =        F    use ultrasoft PP ?                                                          
   IUNSCR =        1    unscreen: 0-lin 1-nonlin 2-no                                               
   RPACOR =    2.080    partial core radius                                                         
   POMASS =   54.938; ZVAL   =   13.000    mass and valenz                                          
   RCORE  =    2.300    outmost cutoff radius                                                       
   RWIGS  =    2.500; RWIGS  =    1.323    wigner-seitz radius (au A)                               
   ENMAX  =  269.864; ENMIN  =  202.398 eV                                                          
   ICORE  =        3    local potential                                                             
   LCOR   =        T    correct aug charges                                                         
   LPAW   =        T    paw PP                                                                      
   EAUG   =  569.085                                                                                
   DEXC   =    0.000                                                                                
   RMAX   =    2.343    core radius for proj-oper                                                   
   RAUG   =    1.300    factor for augmentation sphere                                              
   RDEP   =    2.338    radius for radial grids                                                     
   RDEPT  =    1.798    core radius for aug-charge                                                  
                                                                                                    
   Atomic configuration                                                                             
    8 entries                                                                                       
     n  l   j            E        occ.                                                              
     1  0  0.50     -6424.8287   2.0000                                                             
     2  0  0.50      -739.1154   2.0000                                                             
     2  1  1.50      -625.3949   6.0000                                                             
     3  0  0.50       -81.6100   2.0000                                                             
     3  1  1.50       -50.4667   6.0000                                                             
     3  2  2.50        -3.3745   6.0000                                                             
     4  0  0.50        -4.1331   1.0000                                                             
     4  3  2.50        -1.3606   0.0000                                                             
   Description                                                                                      
     l       E           TYP  RCUT    TYP  RCUT                                                     
     1    -50.4666628     23  2.000                                                                 
     1     -1.3605826     23  2.000                                                                 
     2     -3.3744729     23  2.300                                                                 
     2     -4.7350555     23  2.300                                                                 
     0     -4.1331431     23  2.300                                                                 
     0      7.6656591     23  2.300                                                                 
     3      9.5240782     23  2.300                                                                 
  local pseudopotential read in
  partial core-charges read in
  partial kinetic energy density read in
  atomic valenz-charges read in
  non local Contribution for L=           1  read in
    real space projection operators read in
  non local Contribution for L=           1  read in
    real space projection operators read in
  non local Contribution for L=           2  read in
    real space projection operators read in
  non local Contribution for L=           2  read in
    real space projection operators read in
  non local Contribution for L=           0  read in
    real space projection operators read in
  non local Contribution for L=           0  read in
    real space projection operators read in
    PAW grid and wavefunctions read in
 
   number of l-projection  operators is LMAX  =           6
   number of lm-projection operators is LMMAX =          18
 
 -----------------------------------------------------------------------------
|                                                                             |
|               ----> ADVICE to this user running VASP <----                  |
|                                                                             |
|     You have a (more or less) 'large supercell' and for larger cells it     |
|     might be more efficient to use real-space projection operators.         |
|     Therefore, try LREAL= Auto in the INCAR file.                           |
|     Mind: For very accurate calculation, you might also keep the            |
|     reciprocal projection scheme (i.e. LREAL=.FALSE.).                      |
|                                                                             |
 -----------------------------------------------------------------------------

  PAW_PBE Mn_pv 02Aug2007               :
 energy of atom  1       EATOM=-2025.2664
 kinetic energy error for atom=    0.0062 (will be added to EATOM!!)
 
 
 POSCAR: Mn bcc
  positions in direct lattice
  No initial velocities read in
 exchange correlation table for  LEXCH =        8
   RHO(1)=    0.500       N(1)  =     2000
   RHO(2)=  100.500       N(2)  =     4000
 


--------------------------------------------------------------------------------------------------------


 ion  position               nearest neighbor table
   1  0.000  0.000  0.000-   8 2.62  15 2.62  16 2.62   6 2.62  27 2.62  28 2.62  22 2.62   7 2.62
                            21 2.62   9 2.62  10 2.62  29 2.62  23 2.69   2 2.69  14 2.69   4 2.69
   2  0.364  0.000  0.000-  13 2.44   3 2.44  25 2.44  22 2.58  28 2.58  15 2.58   8 2.58  10 2.58
                            29 2.58   1 2.69   9 2.78   7 2.78  27 2.78  19 2.81   5 2.81  17 2.81
   3  0.606  0.319  0.000-   6 2.28   9 2.41  27 2.41   2 2.44  26 2.53  11 2.53  19 2.55  24 2.55
                            17 2.55  12 2.55  29 2.55   8 2.55   4 2.81
   4  0.000  0.364  0.000-   5 2.44  12 2.44  24 2.44  21 2.58  27 2.58  16 2.58   8 2.58   9 2.58
                            29 2.58   1 2.69  10 2.78  28 2.78   6 2.78  20 2.81   3 2.81  18 2.81
   5  0.319  0.606  0.000-   7 2.28  10 2.41  28 2.41   4 2.44  26 2.53  11 2.53  18 2.55  25 2.55
                            13 2.55  20 2.55  29 2.55   8 2.55   2 2.81
   6  0.807  0.630  0.000-   7 2.13   3 2.28  10 2.33  28 2.33  24 2.41  12 2.41  26 2.55  11 2.55
                            23 2.58  14 2.58   1 2.62   4 2.78
   7  0.630  0.807  0.000-   6 2.13   5 2.28   9 2.33  27 2.33  13 2.41  25 2.41  26 2.55  11 2.55
                            14 2.58  23 2.58   1 2.62   2 2.78
   8  0.370  0.370  0.177-  29 2.13  11 2.28  16 2.33  15 2.33  18 2.41  17 2.41   3 2.55   5 2.55
                             4 2.58   2 2.58   1 2.62  23 2.78
   9  0.823  0.193  0.193-  16 2.13  17 2.28   7 2.33  27 2.33  13 2.41   3 2.41  20 2.55  12 2.55
                             4 2.58  14 2.58   1 2.62   2 2.78
  10  0.193  0.823  0.193-  15 2.13  18 2.28   6 2.33  28 2.33  12 2.41   5 2.41  19 2.55  13 2.55
                             2 2.58  14 2.58   1 2.62   4 2.78
  11  0.681  0.681  0.287-   8 2.28  21 2.41  22 2.41  14 2.44   3 2.53   5 2.53  18 2.55  12 2.55
                            17 2.55  13 2.55   6 2.55   7 2.55  23 2.81
  12  0.000  0.606  0.319-  22 2.28  10 2.41   6 2.41   4 2.44  17 2.53  25 2.53  19 2.55  11 2.55
                            18 2.55   3 2.55   9 2.55  16 2.55  14 2.81
  13  0.606  0.000  0.319-  21 2.28   9 2.41   7 2.41   2 2.44  18 2.53  24 2.53   5 2.55  20 2.55
                            11 2.55  17 2.55  10 2.55  15 2.55  14 2.81
  14  0.000  0.000  0.364-  11 2.44  19 2.44  20 2.44   7 2.58   6 2.58  15 2.58  16 2.58  10 2.58
                             9 2.58   1 2.69  29 2.78  22 2.78  21 2.78  13 2.81  26 2.81  12 2.81
  15  0.370  0.177  0.370-  10 2.13  24 2.28  16 2.33   8 2.33  17 2.41  26 2.41  13 2.55  19 2.55
                            14 2.58   2 2.58   1 2.62  23 2.78
  16  0.177  0.370  0.370-   9 2.13  25 2.28  15 2.33   8 2.33  18 2.41  26 2.41  12 2.55  20 2.55
                            14 2.58   4 2.58   1 2.62  23 2.78
  17  0.713  0.394  0.394-   9 2.28   8 2.41  15 2.41  23 2.44  20 2.53  12 2.53  11 2.55  24 2.55
                             3 2.55  13 2.55  22 2.55  28 2.55   2 2.81
  18  0.394  0.713  0.394-  10 2.28   8 2.41  16 2.41  23 2.44  19 2.53  13 2.53  11 2.55  12 2.55
                             5 2.55  25 2.55  21 2.55  27 2.55   4 2.81
  19  0.319  0.000  0.606-  27 2.28  29 2.41  22 2.41  14 2.44  18 2.53  24 2.53  26 2.55   3 2.55
                            12 2.55  25 2.55  10 2.55  15 2.55   2 2.81
  20  0.000  0.319  0.606-  28 2.28  29 2.41  21 2.41  14 2.44  17 2.53  25 2.53  13 2.55  26 2.55
                             5 2.55  24 2.55   9 2.55  16 2.55   4 2.81
  21  0.807  0.000  0.630-  27 2.13  13 2.28  22 2.33  29 2.33  20 2.41  11 2.41  18 2.55  24 2.55
                             4 2.58  23 2.58   1 2.62  14 2.78
  22  0.000  0.807  0.630-  28 2.13  12 2.28  21 2.33  29 2.33  19 2.41  11 2.41  17 2.55  25 2.55
                             2 2.58  23 2.58   1 2.62  14 2.78
  23  0.636  0.636  0.636-  17 2.44  26 2.44  18 2.44   6 2.58  27 2.58  28 2.58   7 2.58  21 2.58
                            22 2.58   1 2.69  15 2.78  16 2.78   8 2.78  11 2.81  24 2.81  25 2.81
  24  0.681  0.287  0.681-  15 2.28   6 2.41  28 2.41   4 2.44  19 2.53  13 2.53  17 2.55  20 2.55
                            26 2.55   3 2.55  27 2.55  21 2.55  23 2.81
  25  0.287  0.681  0.681-  16 2.28   7 2.41  27 2.41   2 2.44  20 2.53  12 2.53  26 2.55   5 2.55
                            18 2.55  19 2.55  22 2.55  28 2.55  23 2.81
  26  0.394  0.394  0.713-  29 2.28  16 2.41  15 2.41  23 2.44   3 2.53   5 2.53  25 2.55  19 2.55
                            20 2.55  24 2.55   6 2.55   7 2.55  14 2.81
  27  0.630  0.000  0.807-  21 2.13  19 2.28   7 2.33   9 2.33   3 2.41  25 2.41  24 2.55  18 2.55
                            23 2.58   4 2.58   1 2.62   2 2.78
  28  0.000  0.630  0.807-  22 2.13  20 2.28   6 2.33  10 2.33   5 2.41  24 2.41  17 2.55  25 2.55
                            23 2.58   2 2.58   1 2.62   4 2.78
  29  0.193  0.193  0.823-   8 2.13  26 2.28  22 2.33  21 2.33  20 2.41  19 2.41   3 2.55   5 2.55
                             4 2.58   2 2.58   1 2.62  14 2.78
 
  LATTYP: Found a body centered cubic cell.
 ALAT       =     8.5255200000
  
  Lattice vectors:
  
 A1 = (  -4.2627600000,   4.2627600000,   4.2627600000)
 A2 = (   4.2627600000,  -4.2627600000,   4.2627600000)
 A3 = (   4.2627600000,   4.2627600000,  -4.2627600000)


Analysis of symmetry for initial positions (statically):
=====================================================================
 Subroutine PRICEL returns:
 Original cell was already a primitive cell.
 

 Routine SETGRP: Setting up the symmetry group for a 
 body centered cubic supercell.


 Subroutine GETGRP returns: Found 24 space group operations
 (whereof 24 operations were pure point group operations)
 out of a pool of 48 trial point group operations.


The static configuration has the point symmetry T_d .


Analysis of symmetry for dynamics (positions and initial velocities):
=====================================================================
 Subroutine PRICEL returns:
 Original cell was already a primitive cell.
 

 Routine SETGRP: Setting up the symmetry group for a 
 body centered cubic supercell.


 Subroutine GETGRP returns: Found 24 space group operations
 (whereof 24 operations were pure point group operations)
 out of a pool of 48 trial point group operations.


The dynamic configuration has the point symmetry T_d .


 Subroutine INISYM returns: Found 24 space group operations
 (whereof 24 operations are pure point group operations),
 and found     1 'primitive' translations


----------------------------------------------------------------------------------------

                                     Primitive cell                                     

  volume of cell :     309.8365

  direct lattice vectors                    reciprocal lattice vectors
    -4.262760000  4.262760000  4.262760000     0.000000000  0.117294898  0.117294898
     4.262760000 -4.262760000  4.262760000     0.117294898  0.000000000  0.117294898
     4.262760000  4.262760000 -4.262760000     0.117294898  0.117294898  0.000000000

  length of vectors
     7.383316900  7.383316900  7.383316900     0.165880036  0.165880036  0.165880036

  position of ions in fractional coordinates (direct lattice)
     0.000000000  0.000000000  0.000000000
     0.364357834  0.000000000  0.000000000
     0.606380608  0.319148861  0.000000000
     1.000000000  0.364357834  1.000000000
     0.319148861  0.606380608  1.000000000
     0.807034644  0.630329880  0.000000000
     0.630329880  0.807034644  1.000000000
     0.369670120  0.369670120  0.176704764
     0.823295236  0.192965356  0.192965356
     0.192965356  0.823295236  0.192965356
     0.680851139  0.680851139  0.287231747
     1.000000000  0.606380608  0.319148861
     0.606380608  0.000000000  0.319148861
     0.000000000  0.000000000  0.364357834
     0.369670120  0.176704764  0.369670120
     0.176704764  0.369670120  0.369670120
     0.712768253  0.393619392  0.393619392
     0.393619392  0.712768253  0.393619392
     0.319148861  0.000000000  0.606380608
     0.000000000  0.319148861  0.606380608
     0.807034644  0.000000000  0.630329880
     1.000000000  0.807034644  0.630329880
     0.635642166  0.635642166  0.635642166
     0.680851139  0.287231747  0.680851139
     0.287231747  0.680851139  0.680851139
     0.393619392  0.393619392  0.712768253
     0.630329880  0.000000000  0.807034644
     0.000000000  0.630329880  0.807034644
     0.192965356  0.192965356  0.823295236

  ion indices of the primitive-cell ions
   primitive index   ion index
                 1           1
                 2           2
                 3           3
                 4           4
                 5           5
                 6           6
                 7           7
                 8           8
                 9           9
                10          10
                11          11
                12          12
                13          13
                14          14
                15          15
                16          16
                17          17
                18          18
                19          19
                20          20
                21          21
                22          22
                23          23
                24          24
                25          25
                26          26
                27          27
                28          28
                29          29

----------------------------------------------------------------------------------------

 
 
 KPOINTS: K-Spacing Value to Generate K-Mesh: 0.02

Automatic generation of k-mesh.
 Grid dimensions read from file:
 generate k-points for:    8    8    8

 Generating k-lattice:

  Cartesian coordinates                     Fractional coordinates (reciprocal lattice)
     0.000000000  0.014661862  0.014661862     0.125000000 -0.000000000  0.000000000
     0.014661862  0.000000000  0.014661862     0.000000000  0.125000000  0.000000000
     0.014661862  0.014661862  0.000000000     0.000000000 -0.000000000  0.125000000

  Length of vectors
     0.020735004  0.020735004  0.020735004

  Shift w.r.t. Gamma in fractional coordinates (k-lattice)
     0.500000000  0.500000000  0.500000000

 
 Subroutine IBZKPT returns following result:
 ===========================================
 
 Found     26 irreducible k-points:
 
 Following reciprocal coordinates:
            Coordinates               Weight
  0.062500  0.062500  0.062500      8.000000
  0.187500  0.062500  0.062500     24.000000
  0.312500  0.062500  0.062500     24.000000
  0.437500  0.062500  0.062500     12.000000
 -0.062500  0.062500  0.062500      6.000000
  0.187500  0.187500  0.062500     24.000000
  0.312500  0.187500  0.062500     48.000000
 -0.187500  0.187500  0.062500     24.000000
  0.312500  0.312500  0.062500      8.000000
 -0.312500  0.312500  0.062500     24.000000
 -0.187500  0.312500  0.062500     24.000000
 -0.437500  0.437500  0.062500     24.000000
 -0.312500  0.437500  0.062500     48.000000
 -0.437500 -0.437500  0.062500     24.000000
 -0.312500 -0.437500  0.062500     24.000000
  0.187500  0.187500  0.187500      8.000000
  0.312500  0.187500  0.187500     12.000000
 -0.187500  0.187500  0.187500      6.000000
 -0.312500  0.312500  0.187500     24.000000
 -0.437500  0.437500  0.187500     24.000000
 -0.312500  0.437500  0.187500     24.000000
 -0.437500 -0.437500  0.187500     24.000000
 -0.312500  0.312500  0.312500      6.000000
 -0.437500  0.437500  0.312500     24.000000
 -0.437500 -0.437500  0.312500      8.000000
 -0.437500  0.437500  0.437500      6.000000
 
 Following cartesian coordinates:
            Coordinates               Weight
  0.014662  0.014662  0.014662      8.000000
  0.014662  0.029324  0.029324     24.000000
  0.014662  0.043986  0.043986     24.000000
  0.014662  0.058647  0.058647     12.000000
  0.014662 -0.000000  0.000000      6.000000
  0.029324  0.029324  0.043986     24.000000
  0.029324  0.043986  0.058647     48.000000
  0.029324 -0.014662 -0.000000     24.000000
  0.043986  0.043986  0.073309      8.000000
  0.043986 -0.029324 -0.000000     24.000000
  0.043986 -0.014662  0.014662     24.000000
  0.058647 -0.043986  0.000000     24.000000
  0.058647 -0.029324  0.014662     48.000000
 -0.043986 -0.043986 -0.102633     24.000000
 -0.043986 -0.029324 -0.087971     24.000000
  0.043986  0.043986  0.043986      8.000000
  0.043986  0.058647  0.058647     12.000000
  0.043986 -0.000000 -0.000000      6.000000
  0.058647 -0.014662 -0.000000     24.000000
  0.073309 -0.029324  0.000000     24.000000
  0.073309 -0.014662  0.014662     24.000000
 -0.029324 -0.029324 -0.102633     24.000000
  0.073309 -0.000000 -0.000000      6.000000
  0.087971 -0.014662  0.000000     24.000000
 -0.014662 -0.014662 -0.102633      8.000000
  0.102633 -0.000000  0.000000      6.000000
 


--------------------------------------------------------------------------------------------------------




 Dimension of arrays:
   k-points           NKPTS =     26   k-points in BZ     NKDIM =     26   number of bands    NBANDS=    232
   number of dos      NEDOS =    301   number of ions     NIONS =     29
   non local maximal  LDIM  =      6   non local SUM 2l+1 LMDIM =     18
   total plane-waves  NPLWV = 157464
   max r-space proj   IRMAX =      1   max aug-charges    IRDMAX=  15618
   dimension x,y,z NGX =    54 NGY =   54 NGZ =   54
   dimension x,y,z NGXF=   108 NGYF=  108 NGZF=  108
   support grid    NGXF=   108 NGYF=  108 NGZF=  108
   ions per type =              29
   NGX,Y,Z   is equivalent  to a cutoff of  12.16, 12.16, 12.16 a.u.
   NGXF,Y,Z  is equivalent  to a cutoff of  24.32, 24.32, 24.32 a.u.

 SYSTEM =  unknown system                          
 POSCAR =  Mn bcc                                  

 Startparameter for this run:
   NWRITE =      2    write-flag & timer
   PREC   = accura    normal or accurate (medium, high low for compatibility)
   ISTART =      0    job   : 0-new  1-cont  2-samecut
   ICHARG =      2    charge: 1-file 2-atom 10-const
   ISPIN  =      1    spin polarized calculation?
   LNONCOLLINEAR =      F non collinear calculations
   LSORBIT =      F    spin-orbit coupling
   INIWAV =      1    electr: 0-lowe 1-rand  2-diag
   LASPH  =      F    aspherical Exc in radial PAW
 Electronic Relaxation 1
   ENCUT  =  500.0 eV  36.75 Ry    6.06 a.u.  13.46 13.46 13.46*2*pi/ulx,y,z
   ENINI  =  500.0     initial cutoff
   ENAUG  =  569.1 eV  augmentation charge cutoff
   NELM   =     60;   NELMIN=  2; NELMDL= -5     # of ELM steps 
   EDIFF  = 0.1E-05   stopping-criterion for ELM
   LREAL  =      F    real-space projection
   NLSPLINE    = F    spline interpolate recip. space projectors
   LCOMPAT=      F    compatible to vasp.4.4
   GGA_COMPAT  = T    GGA compatible to vasp.4.4-vasp.4.6
   LMAXPAW     = -100 max onsite density
   LMAXMIX     =    2 max onsite mixed and CHGCAR
   VOSKOWN=      0    Vosko Wilk Nusair interpolation
   ROPT   =    0.00000
 Ionic relaxation
   EDIFFG = 0.1E-04   stopping-criterion for IOM
   NSW    =      0    number of steps for IOM
   NBLOCK =      1;   KBLOCK =      1    inner block; outer block 
   IBRION =     -1    ionic relax: 0-MD 1-quasi-New 2-CG
   NFREE  =      0    steps in history (QN), initial steepest desc. (CG)
   ISIF   =      2    stress and relaxation
   IWAVPR =     10    prediction:  0-non 1-charg 2-wave 3-comb
   ISYM   =      2    0-nonsym 1-usesym 2-fastsym
   LCORR  =      T    Harris-Foulkes like correction to forces

   POTIM  = 0.5000    time-step for ionic-motion
   TEIN   =    0.0    initial temperature
   TEBEG  =    0.0;   TEEND  =   0.0 temperature during run
   SMASS  =  -3.00    Nose mass-parameter (am)
   estimated Nose-frequenzy (Omega)   =  0.10E-29 period in steps = 0.13E+47 mass=  -0.125E-26a.u.
   SCALEE = 1.0000    scale energy and forces
   NPACO  =    256;   APACO  = 10.0  distance and # of slots for P.C.
   PSTRESS=    0.0 pullay stress

  Mass of Ions in am
   POMASS =  54.94
  Ionic Valenz
   ZVAL   =  13.00
  Atomic Wigner-Seitz radii
   RWIGS  =  -1.00
  virtual crystal weights 
   VCA    =   1.00
   NELECT =     377.0000    total number of electrons
   NUPDOWN=      -1.0000    fix difference up-down

 DOS related values:
   EMIN   =  10.00;   EMAX   =-10.00  energy-range for DOS
   EFERMI =   0.00
   ISMEAR =     0;   SIGMA  =   0.05  broadening in eV -4-tet -1-fermi 0-gaus

 Electronic relaxation 2 (details)
   IALGO  =     38    algorithm
   LDIAG  =      T    sub-space diagonalisation (order eigenvalues)
   LSUBROT=      F    optimize rotation matrix (better conditioning)
   TURBO    =      0    0=normal 1=particle mesh
   IRESTART =      0    0=no restart 2=restart with 2 vectors
   NREBOOT  =      0    no. of reboots
   NMIN     =      0    reboot dimension
   EREF     =   0.00    reference energy to select bands
   IMIX   =      4    mixing-type and parameters
     AMIX     =   0.40;   BMIX     =  1.00
     AMIX_MAG =   1.60;   BMIX_MAG =  1.00
     AMIN     =   0.10
     WC   =   100.;   INIMIX=   1;  MIXPRE=   1;  MAXMIX= -45

 Intra band minimization:
   WEIMIN = 0.0000     energy-eigenvalue tresh-hold
   EBREAK =  0.11E-08  absolut break condition
   DEPER  =   0.30     relativ break condition  

   TIME   =   0.40     timestep for ELM

  volume/ion in A,a.u.               =      10.68        72.10
  Fermi-wavevector in a.u.,A,eV,Ry     =   1.747744  3.302757 41.560464  3.054608
  Thomas-Fermi vector in A             =   2.818985
 
 Write flags
   LWAVE        =      F    write WAVECAR
   LDOWNSAMPLE  =      F    k-point downsampling of WAVECAR
   LCHARG       =      F    write CHGCAR
   LVTOT        =      F    write LOCPOT, total local potential
   LVHAR        =      F    write LOCPOT, Hartree potential only
   LELF         =      F    write electronic localiz. function (ELF)
   LORBIT       =      0    0 simple, 1 ext, 2 COOP (PROOUT), +10 PAW based schemes


 Dipole corrections
   LMONO  =      F    monopole corrections only (constant potential shift)
   LDIPOL =      F    correct potential (dipole corrections)
   IDIPOL =      0    1-x, 2-y, 3-z, 4-all directions 
   EPSILON=  1.0000000 bulk dielectric constant

 Exchange correlation treatment:
   GGA     =    --    GGA type
   LEXCH   =     8    internal setting for exchange type
   LIBXC   =     F    Libxc                    
   VOSKOWN =     0    Vosko Wilk Nusair interpolation
   LHFCALC =     F    Hartree Fock is set to
   LHFONE  =     F    Hartree Fock one center treatment
   AEXX    =    0.0000 exact exchange contribution

 Linear response parameters
   LEPSILON=     F    determine dielectric tensor
   LRPA    =     F    only Hartree local field effects (RPA)
   LNABLA  =     F    use nabla operator in PAW spheres
   LVEL    =     F    velocity operator in full k-point grid
   CSHIFT  =0.1000    complex shift for real part using Kramers Kronig
   OMEGAMAX=  -1.0    maximum frequency
   DEG_THRESHOLD= 0.2000000E-02 threshold for treating states as degnerate
   RTIME   =   -0.100 relaxation time in fs
  (WPLASMAI=    0.000 imaginary part of plasma frequency in eV, 0.658/RTIME)
   DFIELD  = 0.0000000 0.0000000 0.0000000 field for delta impulse in time
 
  Optional k-point grid parameters
   LKPOINTS_OPT  =     F    use optional k-point grid
   KPOINTS_OPT_MODE=     1    mode for optional k-point grid
 
 Orbital magnetization related:
   ORBITALMAG=     F  switch on orbital magnetization
   LCHIMAG   =     F  perturbation theory with respect to B field
   DQ        =  0.001000  dq finite difference perturbation B field
   LLRAUG    =     F  two centre corrections for induced B field



--------------------------------------------------------------------------------------------------------


 Static calculation
 charge density and potential will be updated during run
 non-spin polarized calculation
 Variant of blocked Davidson
 Davidson routine will perform the subspace rotation
 perform sub-space diagonalisation
    after iterative eigenvector-optimisation
 modified Broyden-mixing scheme, WC =      100.0
 initial mixing is a Kerker type mixing with AMIX =  0.4000 and BMIX =      1.0000
 Hartree-type preconditioning will be used
 using additional bands           43
 reciprocal scheme for non local part
 use partial core corrections
 calculate Harris-corrections to forces 
   (improved forces if not selfconsistent)
 use gradient corrections 
 use of overlap-Matrix (Vanderbilt PP)
 Gauss-broadening in eV      SIGMA  =   0.05


--------------------------------------------------------------------------------------------------------


  energy-cutoff  :      500.00
  volume of cell :      309.84
      direct lattice vectors                 reciprocal lattice vectors
    -4.262760000  4.262760000  4.262760000     0.000000000  0.117294898  0.117294898
     4.262760000 -4.262760000  4.262760000     0.117294898  0.000000000  0.117294898
     4.262760000  4.262760000 -4.262760000     0.117294898  0.117294898  0.000000000

  length of vectors
     7.383316900  7.383316900  7.383316900     0.165880036  0.165880036  0.165880036


 
 k-points in units of 2pi/SCALE and weight: K-Spacing Value to Generate K-Mesh: 0.02
   0.01466186  0.01466186  0.01466186       0.016
   0.01466186  0.02932372  0.02932372       0.047
   0.01466186  0.04398559  0.04398559       0.047
   0.01466186  0.05864745  0.05864745       0.023
   0.01466186 -0.00000000 -0.00000000       0.012
   0.02932372  0.02932372  0.04398559       0.047
   0.02932372  0.04398559  0.05864745       0.094
   0.02932372 -0.01466186  0.00000000       0.047
   0.04398559  0.04398559  0.07330931       0.016
   0.04398559 -0.02932372  0.00000000       0.047
   0.04398559 -0.01466186  0.01466186       0.047
   0.05864745 -0.04398559 -0.00000000       0.047
   0.05864745 -0.02932372  0.01466186       0.094
  -0.04398559 -0.04398559 -0.10263304       0.047
  -0.04398559 -0.02932372 -0.08797117       0.047
   0.04398559  0.04398559  0.04398559       0.016
   0.04398559  0.05864745  0.05864745       0.023
   0.04398559 -0.00000000  0.00000000       0.012
   0.05864745 -0.01466186  0.00000000       0.047
   0.07330931 -0.02932372 -0.00000000       0.047
   0.07330931 -0.01466186  0.01466186       0.047
  -0.02932372 -0.02932372 -0.10263304       0.047
   0.07330931 -0.00000000  0.00000000       0.012
   0.08797117 -0.01466186 -0.00000000       0.047
  -0.01466186 -0.01466186 -0.10263304       0.016
   0.10263304 -0.00000000 -0.00000000       0.012
 
 k-points in reciprocal lattice and weights: K-Spacing Value to Generate K-Mesh: 0.02
   0.06250000  0.06250000  0.06250000       0.016
   0.18750000  0.06250000  0.06250000       0.047
   0.31250000  0.06250000  0.06250000       0.047
   0.43750000  0.06250000  0.06250000       0.023
  -0.06250000  0.06250000  0.06250000       0.012
   0.18750000  0.18750000  0.06250000       0.047
   0.31250000  0.18750000  0.06250000       0.094
  -0.18750000  0.18750000  0.06250000       0.047
   0.31250000  0.31250000  0.06250000       0.016
  -0.31250000  0.31250000  0.06250000       0.047
  -0.18750000  0.31250000  0.06250000       0.047
  -0.43750000  0.43750000  0.06250000       0.047
  -0.31250000  0.43750000  0.06250000       0.094
  -0.43750000 -0.43750000  0.06250000       0.047
  -0.31250000 -0.43750000  0.06250000       0.047
   0.18750000  0.18750000  0.18750000       0.016
   0.31250000  0.18750000  0.18750000       0.023
  -0.18750000  0.18750000  0.18750000       0.012
  -0.31250000  0.31250000  0.18750000       0.047
  -0.43750000  0.43750000  0.18750000       0.047
  -0.31250000  0.43750000  0.18750000       0.047
  -0.43750000 -0.43750000  0.18750000       0.047
  -0.31250000  0.31250000  0.31250000       0.012
  -0.43750000  0.43750000  0.31250000       0.047
  -0.43750000 -0.43750000  0.31250000       0.016
  -0.43750000  0.43750000  0.43750000       0.012
 
 position of ions in fractional coordinates (direct lattice) 
   0.00000000  0.00000000  0.00000000
   0.36435783  0.00000000  0.00000000
   0.60638061  0.31914886  0.00000000
   0.00000000  0.36435783  0.00000000
   0.31914886  0.60638061  0.00000000
   0.80703464  0.63032988  0.00000000
   0.63032988  0.80703464  0.00000000
   0.36967012  0.36967012  0.17670476
   0.82329524  0.19296536  0.19296536
   0.19296536  0.82329524  0.19296536
   0.68085114  0.68085114  0.28723175
   0.00000000  0.60638061  0.31914886
   0.60638061  0.00000000  0.31914886
   0.00000000  0.00000000  0.36435783
   0.36967012  0.17670476  0.36967012
   0.17670476  0.36967012  0.36967012
   0.71276825  0.39361939  0.39361939
   0.39361939  0.71276825  0.39361939
   0.31914886  0.00000000  0.60638061
   0.00000000  0.31914886  0.60638061
   0.80703464  0.00000000  0.63032988
   0.00000000  0.80703464  0.63032988
   0.63564217  0.63564217  0.63564217
   0.68085114  0.28723175  0.68085114
   0.28723175  0.68085114  0.68085114
   0.39361939  0.39361939  0.71276825
   0.63032988  0.00000000  0.80703464
   0.00000000  0.63032988  0.80703464
   0.19296536  0.19296536  0.82329524
 
 position of ions in cartesian coordinates  (Angst):
   0.00000000  0.00000000  0.00000000
  -1.55317000  1.55317000  1.55317000
  -1.22440000  1.22440000  3.94531000
   1.55317000 -1.55317000  1.55317000
   1.22440000 -1.22440000  3.94531000
  -0.75325000  0.75325000  6.12714000
   0.75325000 -0.75325000  6.12714000
   0.75325000  0.75325000  2.39838000
  -1.86438000  3.50951000  3.50951000
   3.50951000 -1.86438000  3.50951000
   1.22440000  1.22440000  4.58021000
   3.94531000 -1.22440000  1.22440000
  -1.22440000  3.94531000  1.22440000
   1.55317000  1.55317000 -1.55317000
   0.75325000  2.39838000  0.75325000
   2.39838000  0.75325000  0.75325000
   0.31745000  3.03836000  3.03836000
   3.03836000  0.31745000  3.03836000
   1.22440000  3.94531000 -1.22440000
   3.94531000  1.22440000 -1.22440000
  -0.75325000  6.12714000  0.75325000
   6.12714000 -0.75325000  0.75325000
   2.70959000  2.70959000  2.70959000
   1.22440000  4.58021000  1.22440000
   4.58021000  1.22440000  1.22440000
   3.03836000  3.03836000  0.31745000
   0.75325000  6.12714000 -0.75325000
   6.12714000  0.75325000 -0.75325000
   3.50951000  3.50951000 -1.86438000
 


--------------------------------------------------------------------------------------------------------


 k-point   1 :   0.0625 0.0625 0.0625  plane waves:    7896
 k-point   2 :   0.1875 0.0625 0.0625  plane waves:    7887
 k-point   3 :   0.3125 0.0625 0.0625  plane waves:    7858
 k-point   4 :   0.4375 0.0625 0.0625  plane waves:    7858
 k-point   5 :  -0.0625 0.0625 0.0625  plane waves:    7867
 k-point   6 :   0.1875 0.1875 0.0625  plane waves:    7856
 k-point   7 :   0.3125 0.1875 0.0625  plane waves:    7856
 k-point   8 :  -0.1875 0.1875 0.0625  plane waves:    7903
 k-point   9 :   0.3125 0.3125 0.0625  plane waves:    7857
 k-point  10 :  -0.3125 0.3125 0.0625  plane waves:    7884
 k-point  11 :  -0.1875 0.3125 0.0625  plane waves:    7874
 k-point  12 :  -0.4375 0.4375 0.0625  plane waves:    7865
 k-point  13 :  -0.3125 0.4375 0.0625  plane waves:    7876
 k-point  14 :  -0.4375-0.4375 0.0625  plane waves:    7861
 k-point  15 :  -0.3125-0.4375 0.0625  plane waves:    7859
 k-point  16 :   0.1875 0.1875 0.1875  plane waves:    7854
 k-point  17 :   0.3125 0.1875 0.1875  plane waves:    7838
 k-point  18 :  -0.1875 0.1875 0.1875  plane waves:    7903
 k-point  19 :  -0.3125 0.3125 0.1875  plane waves:    7869
 k-point  20 :  -0.4375 0.4375 0.1875  plane waves:    7859
 k-point  21 :  -0.3125 0.4375 0.1875  plane waves:    7880
 k-point  22 :  -0.4375-0.4375 0.1875  plane waves:    7860
 k-point  23 :  -0.3125 0.3125 0.3125  plane waves:    7856
 k-point  24 :  -0.4375 0.4375 0.3125  plane waves:    7859
 k-point  25 :  -0.4375-0.4375 0.3125  plane waves:    7845
 k-point  26 :  -0.4375 0.4375 0.4375  plane waves:    7832

 maximum and minimum number of plane-waves per node :      1006      953

 maximum number of plane-waves:      7903
 maximum index in each direction: 
   IXMAX=   13   IYMAX=   13   IZMAX=   13
   IXMIN=  -13   IYMIN=  -13   IZMIN=  -13


 parallel 3D FFT for wavefunctions:
    minimum data exchange during FFTs selected (reduces bandwidth)
 parallel 3D FFT for charge:
    minimum data exchange during FFTs selected (reduces bandwidth)


 total amount of memory used by VASP MPI-rank0    50538. kBytes
=======================================================================

   base      :      30000. kBytes
   nonl-proj :       4208. kBytes
   fftplans  :       1380. kBytes
   grid      :       1956. kBytes
   one-center:         62. kBytes
   wavefun   :      12932. kBytes
 
     INWAV:  cpu time      0.0000: real time      0.0000
 Broyden mixing: mesh for mixing (old mesh)
   NGX = 27   NGY = 27   NGZ = 27
  (NGX  =108   NGY  =108   NGZ  =108)
  gives a total of  19683 points

 initial charge density was supplied:
 charge density of overlapping atoms calculated
 number of electron     377.0000000 magnetization 
 keeping initial charge density in first step


--------------------------------------------------------------------------------------------------------


 Maximum index for augmentation-charges          657 (set IRDMAX)


--------------------------------------------------------------------------------------------------------


 First call to EWALD:  gamma=   0.262
 Maximum number of real-space cells 3x 3x 3
 Maximum number of reciprocal cells 3x 3x 3

    FEWALD:  cpu time      0.0043: real time      0.0043


--------------------------------------- Iteration      1(   1)  ---------------------------------------


    POTLOK:  cpu time      0.0370: real time      0.0433
    SETDIJ:  cpu time      0.0115: real time      0.0126
     EDDAV:  cpu time     11.0161: real time     11.2483
       DOS:  cpu time      0.0053: real time      0.0061
    --------------------------------------------
      LOOP:  cpu time     11.0700: real time     11.3103

 eigenvalue-minimisations  : 12264
 total energy-change (2. order) : 0.5732043E+04  (-0.1942075E+05)
 number of electron     377.0000000 magnetization 
 augmentation part      377.0000000 magnetization 

 Free energy of the ion-electron system (eV)
  ---------------------------------------------------
  alpha Z        PSCENC =      3273.13650331
  Ewald energy   TEWEN  =    -46136.49708029
  -Hartree energ DENC   =    -12744.53575044
  -exchange      EXHF   =         0.00000000
  -V(xc)+E(xc)   XCENC  =      2017.99863258
  PAW double counting   =     47742.75956176   -49214.50638554
  entropy T*S    EENTRO =        -0.00853697
  eigenvalues    EBANDS =      2061.14943757
  atomic energy  EATOM  =     58732.54669876
  Solvation  Ediel_sol  =         0.00000000
  ---------------------------------------------------
  free energy    TOTEN  =      5732.04308074 eV

  energy without entropy =     5732.05161771  energy(sigma->0) =     5732.04734922


--------------------------------------------------------------------------------------------------------




--------------------------------------- Iteration      1(   2)  ---------------------------------------


     EDDAV:  cpu time     10.9449: real time     11.0880
       DOS:  cpu time      0.0041: real time      0.0041
    --------------------------------------------
      LOOP:  cpu time     10.9490: real time     11.0922

 eigenvalue-minimisations  : 12064
 total energy-change (2. order) :-0.5403558E+04  (-0.5260201E+04)
 number of electron     377.0000000 magnetization 
 augmentation part      377.0000000 magnetization 

 Free energy of the ion-electron system (eV)
  ---------------------------------------------------
  alpha Z        PSCENC =      3273.13650331
  Ewald energy   TEWEN  =    -46136.49708029
  -Hartree energ DENC   =    -12744.53575044
  -exchange      EXHF   =         0.00000000
  -V(xc)+E(xc)   XCENC  =      2017.99863258
  PAW double counting   =     47742.75956176   -49214.50638554
  entropy T*S    EENTRO =        -0.04042334
  eigenvalues    EBANDS =     -3342.37699992
  atomic energy  EATOM  =     58732.54669876
  Solvation  Ediel_sol  =         0.00000000
  ---------------------------------------------------
  free energy    TOTEN  =       328.48475688 eV

  energy without entropy =      328.52518022  energy(sigma->0) =      328.50496855


--------------------------------------------------------------------------------------------------------




--------------------------------------- Iteration      1(   3)  ---------------------------------------


     EDDAV:  cpu time     12.3686: real time     12.5511
       DOS:  cpu time      0.0039: real time      0.0039
    --------------------------------------------
      LOOP:  cpu time     12.3725: real time     12.5550

 eigenvalue-minimisations  : 14120
 total energy-change (2. order) :-0.5928570E+03  (-0.5401517E+03)
 number of electron     377.0000000 magnetization 
 augmentation part      377.0000000 magnetization 

 Free energy of the ion-electron system (eV)
  ---------------------------------------------------
  alpha Z        PSCENC =      3273.13650331
  Ewald energy   TEWEN  =    -46136.49708029
  -Hartree energ DENC   =    -12744.53575044
  -exchange      EXHF   =         0.00000000
  -V(xc)+E(xc)   XCENC  =      2017.99863258
  PAW double counting   =     47742.75956176   -49214.50638554
  entropy T*S    EENTRO =        -0.03105063
  eigenvalues    EBANDS =     -3935.24341184
  atomic energy  EATOM  =     58732.54669876
  Solvation  Ediel_sol  =         0.00000000
  ---------------------------------------------------
  free energy    TOTEN  =      -264.37228233 eV

  energy without entropy =     -264.34123170  energy(sigma->0) =     -264.35675702


--------------------------------------------------------------------------------------------------------




--------------------------------------- Iteration      1(   4)  ---------------------------------------


     EDDAV:  cpu time     13.9001: real time     14.0834
       DOS:  cpu time      0.0036: real time      0.0036
    --------------------------------------------
      LOOP:  cpu time     13.9037: real time     14.0870

 eigenvalue-minimisations  : 16328
 total energy-change (2. order) :-0.4351923E+02  (-0.4160829E+02)
 number of electron     377.0000000 magnetization 
 augmentation part      377.0000000 magnetization 

 Free energy of the ion-electron system (eV)
  ---------------------------------------------------
  alpha Z        PSCENC =      3273.13650331
  Ewald energy   TEWEN  =    -46136.49708029
  -Hartree energ DENC   =    -12744.53575044
  -exchange      EXHF   =         0.00000000
  -V(xc)+E(xc)   XCENC  =      2017.99863258
  PAW double counting   =     47742.75956176   -49214.50638554
  entropy T*S    EENTRO =        -0.03186546
  eigenvalues    EBANDS =     -3978.76182588
  atomic energy  EATOM  =     58732.54669876
  Solvation  Ediel_sol  =         0.00000000
  ---------------------------------------------------
  free energy    TOTEN  =      -307.89151120 eV

  energy without entropy =     -307.85964574  energy(sigma->0) =     -307.87557847


--------------------------------------------------------------------------------------------------------




--------------------------------------- Iteration      1(   5)  ---------------------------------------


     EDDAV:  cpu time     12.9143: real time     13.0633
       DOS:  cpu time      0.0037: real time      0.0037
    CHARGE:  cpu time      0.3232: real time      0.3269
    MIXING:  cpu time      0.0017: real time      0.0028
    --------------------------------------------
      LOOP:  cpu time     13.2429: real time     13.3967

 eigenvalue-minimisations  : 15464
 total energy-change (2. order) :-0.2000386E+01  (-0.1941459E+01)
 number of electron     377.0000195 magnetization 
 augmentation part      193.2729695 magnetization 

 Broyden mixing:
  rms(total) = 0.73384E+01    rms(broyden)= 0.73382E+01
  rms(prec ) = 0.10141E+02
  weight for this iteration     100.00

 Free energy of the ion-electron system (eV)
  ---------------------------------------------------
  alpha Z        PSCENC =      3273.13650331
  Ewald energy   TEWEN  =    -46136.49708029
  -Hartree energ DENC   =    -12744.53575044
  -exchange      EXHF   =         0.00000000
  -V(xc)+E(xc)   XCENC  =      2017.99863258
  PAW double counting   =     47742.75956176   -49214.50638554
  entropy T*S    EENTRO =        -0.03143746
  eigenvalues    EBANDS =     -3980.76264036
  atomic energy  EATOM  =     58732.54669876
  Solvation  Ediel_sol  =         0.00000000
  ---------------------------------------------------
  free energy    TOTEN  =      -309.89189767 eV

  energy without entropy =     -309.86046022  energy(sigma->0) =     -309.87617895


--------------------------------------------------------------------------------------------------------




--------------------------------------- Iteration      1(   6)  ---------------------------------------


    POTLOK:  cpu time      0.0238: real time      0.0243
    SETDIJ:  cpu time      0.0057: real time      0.0057
     EDDAV:  cpu time     12.6020: real time     12.7607
       DOS:  cpu time      0.0042: real time      0.0043
    CHARGE:  cpu time      0.3205: real time      0.3236
    MIXING:  cpu time      0.0011: real time      0.0063
    --------------------------------------------
      LOOP:  cpu time     12.9573: real time     13.1250

 eigenvalue-minimisations  : 14776
 total energy-change (2. order) :-0.4498772E+01  (-0.5483682E+02)
 number of electron     377.0000180 magnetization 
 augmentation part      213.8234084 magnetization 

 Broyden mixing:
  rms(total) = 0.10417E+02    rms(broyden)= 0.10417E+02
  rms(prec ) = 0.18553E+02
  weight for this iteration     100.00

 eigenvalues of (default mixing * dielectric matrix)
  average eigenvalue GAMMA=   0.3565
  0.3565

 Free energy of the ion-electron system (eV)
  ---------------------------------------------------
  alpha Z        PSCENC =      3273.13650331
  Ewald energy   TEWEN  =    -46136.49708029
  -Hartree energ DENC   =    -11673.72876966
  -exchange      EXHF   =         0.00000000
  -V(xc)+E(xc)   XCENC  =      1965.40107107
  PAW double counting   =     50580.89829479   -52043.15665051
  entropy T*S    EENTRO =        -0.06067711
  eigenvalues    EBANDS =     -5012.93006041
  atomic energy  EATOM  =     58732.54669876
  Solvation  Ediel_sol  =         0.00000000
  ---------------------------------------------------
  free energy    TOTEN  =      -314.39067004 eV

  energy without entropy =     -314.32999294  energy(sigma->0) =     -314.36033149


--------------------------------------------------------------------------------------------------------




--------------------------------------- Iteration      1(   7)  ---------------------------------------


    POTLOK:  cpu time      0.0234: real time      0.0243
    SETDIJ:  cpu time      0.0096: real time      0.0098
     EDDAV:  cpu time     13.4922: real time     13.6791
       DOS:  cpu time      0.0039: real time      0.0040
    CHARGE:  cpu time      0.4245: real time      0.4284
    MIXING:  cpu time      0.0010: real time      0.0010
    --------------------------------------------
      LOOP:  cpu time     13.9547: real time     14.1466

 eigenvalue-minimisations  : 16344
 total energy-change (2. order) : 0.1495970E+02  (-0.5616662E+02)
 number of electron     377.0000223 magnetization 
 augmentation part      214.5188941 magnetization 

 Broyden mixing:
  rms(total) = 0.75987E+01    rms(broyden)= 0.75983E+01
  rms(prec ) = 0.15329E+02
  weight for this iteration     100.00

 eigenvalues of (default mixing * dielectric matrix)
  average eigenvalue GAMMA=   0.5309
  0.8916  0.1702

 Free energy of the ion-electron system (eV)
  ---------------------------------------------------
  alpha Z        PSCENC =      3273.13650331
  Ewald energy   TEWEN  =    -46136.49708029
  -Hartree energ DENC   =    -11713.14866912
  -exchange      EXHF   =         0.00000000
  -V(xc)+E(xc)   XCENC  =      1968.30552061
  PAW double counting   =     51397.46898318   -52879.09730131
  entropy T*S    EENTRO =        -0.06682445
  eigenvalues    EBANDS =     -4942.07879869
  atomic energy  EATOM  =     58732.54669876
  Solvation  Ediel_sol  =         0.00000000
  ---------------------------------------------------
  free energy    TOTEN  =      -299.43096801 eV

  energy without entropy =     -299.36414356  energy(sigma->0) =     -299.39755579


--------------------------------------------------------------------------------------------------------




--------------------------------------- Iteration      1(   8)  ---------------------------------------


    POTLOK:  cpu time      0.0229: real time      0.0234
    SETDIJ:  cpu time      0.0056: real time      0.0056
     EDDAV:  cpu time     13.9048: real time     14.0862
       DOS:  cpu time      0.0044: real time      0.0044
    CHARGE:  cpu time      0.3203: real time      0.3236
    MIXING:  cpu time      0.0009: real time      0.0009
    --------------------------------------------
      LOOP:  cpu time     14.2588: real time     14.4441

 eigenvalue-minimisations  : 16168
 total energy-change (2. order) : 0.3603172E+02  (-0.1066637E+02)
 number of electron     377.0000207 magnetization 
 augmentation part      208.0070416 magnetization 

 Broyden mixing:
  rms(total) = 0.25010E+01    rms(broyden)= 0.25005E+01
  rms(prec ) = 0.53898E+01
  weight for this iteration     100.00

 eigenvalues of (default mixing * dielectric matrix)
  average eigenvalue GAMMA=   0.5055
  0.9389  0.4270  0.1508

 Free energy of the ion-electron system (eV)
  ---------------------------------------------------
  alpha Z        PSCENC =      3273.13650331
  Ewald energy   TEWEN  =    -46136.49708029
  -Hartree energ DENC   =    -11867.10872455
  -exchange      EXHF   =         0.00000000
  -V(xc)+E(xc)   XCENC  =      1975.54086344
  PAW double counting   =     53108.56012676   -54633.57587893
  entropy T*S    EENTRO =        -0.04543599
  eigenvalues    EBANDS =     -4715.95632289
  atomic energy  EATOM  =     58732.54669876
  Solvation  Ediel_sol  =         0.00000000
  ---------------------------------------------------
  free energy    TOTEN  =      -263.39925039 eV

  energy without entropy =     -263.35381440  energy(sigma->0) =     -263.37653240


--------------------------------------------------------------------------------------------------------




--------------------------------------- Iteration      1(   9)  ---------------------------------------


    POTLOK:  cpu time      0.0226: real time      0.0233
    SETDIJ:  cpu time      0.0057: real time      0.0058
     EDDAV:  cpu time     14.0843: real time     14.2578
       DOS:  cpu time      0.0039: real time      0.0039
    CHARGE:  cpu time      0.3171: real time      0.3204
    MIXING:  cpu time      0.0011: real time      0.0011
    --------------------------------------------
      LOOP:  cpu time     14.4346: real time     14.6123

 eigenvalue-minimisations  : 17200
 total energy-change (2. order) :-0.2952525E+01  (-0.4325037E+01)
 number of electron     377.0000188 magnetization 
 augmentation part      207.8275469 magnetization 

 Broyden mixing:
  rms(total) = 0.32493E+01    rms(broyden)= 0.32491E+01
  rms(prec ) = 0.66347E+01
  weight for this iteration     100.00

 eigenvalues of (default mixing * dielectric matrix)
  average eigenvalue GAMMA=   0.4373
  0.9868  0.4974  0.1564  0.1086

 Free energy of the ion-electron system (eV)
  ---------------------------------------------------
  alpha Z        PSCENC =      3273.13650331
  Ewald energy   TEWEN  =    -46136.49708029
  -Hartree energ DENC   =    -11840.18078471
  -exchange      EXHF   =         0.00000000
  -V(xc)+E(xc)   XCENC  =      1974.26321707
  PAW double counting   =     53372.25426750   -54903.43171968
  entropy T*S    EENTRO =        -0.03653824
  eigenvalues    EBANDS =     -4738.40633956
  atomic energy  EATOM  =     58732.54669876
  Solvation  Ediel_sol  =         0.00000000
  ---------------------------------------------------
  free energy    TOTEN  =      -266.35177584 eV

  energy without entropy =     -266.31523761  energy(sigma->0) =     -266.33350672


--------------------------------------------------------------------------------------------------------




--------------------------------------- Iteration      1(  10)  ---------------------------------------


    POTLOK:  cpu time      0.0229: real time      0.0234
    SETDIJ:  cpu time      0.0057: real time      0.0058
     EDDAV:  cpu time     13.6352: real time     13.8684
       DOS:  cpu time      0.0041: real time      0.0041
    CHARGE:  cpu time      0.3160: real time      0.3194
    MIXING:  cpu time      0.0011: real time      0.0018
    --------------------------------------------
      LOOP:  cpu time     13.9850: real time     14.2229

 eigenvalue-minimisations  : 16696
 total energy-change (2. order) : 0.4951544E+01  (-0.1294358E+01)
 number of electron     377.0000203 magnetization 
 augmentation part      207.8199332 magnetization 

 Broyden mixing:
  rms(total) = 0.10756E+01    rms(broyden)= 0.10755E+01
  rms(prec ) = 0.15024E+01
  weight for this iteration     100.00

 eigenvalues of (default mixing * dielectric matrix)
  average eigenvalue GAMMA=   0.4363
  1.0012  0.4566  0.4566  0.1566  0.1103

 Free energy of the ion-electron system (eV)
  ---------------------------------------------------
  alpha Z        PSCENC =      3273.13650331
  Ewald energy   TEWEN  =    -46136.49708029
  -Hartree energ DENC   =    -11794.68093912
  -exchange      EXHF   =         0.00000000
  -V(xc)+E(xc)   XCENC  =      1972.17676788
  PAW double counting   =     53695.12122454   -55233.86795408
  entropy T*S    EENTRO =        -0.04155131
  eigenvalues    EBANDS =     -4769.29390134
  atomic energy  EATOM  =     58732.54669876
  Solvation  Ediel_sol  =         0.00000000
  ---------------------------------------------------
  free energy    TOTEN  =      -261.40023165 eV

  energy without entropy =     -261.35868034  energy(sigma->0) =     -261.37945599


--------------------------------------------------------------------------------------------------------




--------------------------------------- Iteration      1(  11)  ---------------------------------------


    POTLOK:  cpu time      0.0229: real time      0.0234
    SETDIJ:  cpu time      0.0059: real time      0.0060
     EDDAV:  cpu time     14.0047: real time     14.3397
       DOS:  cpu time      0.0038: real time      0.0038
    CHARGE:  cpu time      0.3247: real time      0.3280
    MIXING:  cpu time      0.0010: real time      0.0010
    --------------------------------------------
      LOOP:  cpu time     14.3629: real time     14.7019

 eigenvalue-minimisations  : 16304
 total energy-change (2. order) : 0.4066405E-01  (-0.1554899E+00)
 number of electron     377.0000203 magnetization 
 augmentation part      207.9643362 magnetization 

 Broyden mixing:
  rms(total) = 0.10644E+01    rms(broyden)= 0.10644E+01
  rms(prec ) = 0.15686E+01
  weight for this iteration     100.00

 eigenvalues of (default mixing * dielectric matrix)
  average eigenvalue GAMMA=   0.4589
  1.0273  0.6804  0.6804  0.1569  0.1102  0.0980

 Free energy of the ion-electron system (eV)
  ---------------------------------------------------
  alpha Z        PSCENC =      3273.13650331
  Ewald energy   TEWEN  =    -46136.49708029
  -Hartree energ DENC   =    -11779.54660718
  -exchange      EXHF   =         0.00000000
  -V(xc)+E(xc)   XCENC  =      1971.46032028
  PAW double counting   =     53754.35937371   -55294.86421627
  entropy T*S    EENTRO =        -0.03734317
  eigenvalues    EBANDS =     -4781.91721676
  atomic energy  EATOM  =     58732.54669876
  Solvation  Ediel_sol  =         0.00000000
  ---------------------------------------------------
  free energy    TOTEN  =      -261.35956760 eV

  energy without entropy =     -261.32222443  energy(sigma->0) =     -261.34089601


--------------------------------------------------------------------------------------------------------




--------------------------------------- Iteration      1(  12)  ---------------------------------------


    POTLOK:  cpu time      0.0226: real time      0.0232
    SETDIJ:  cpu time      0.0057: real time      0.0058
     EDDAV:  cpu time     12.7572: real time     12.9644
       DOS:  cpu time      0.0041: real time      0.0041
    CHARGE:  cpu time      0.4187: real time      0.4227
    MIXING:  cpu time      0.0011: real time      0.0011
    --------------------------------------------
      LOOP:  cpu time     13.2094: real time     13.4214

 eigenvalue-minimisations  : 14944
 total energy-change (2. order) : 0.4882794E+00  (-0.1480626E+00)
 number of electron     377.0000203 magnetization 
 augmentation part      208.8202530 magnetization 

 Broyden mixing:
  rms(total) = 0.76428E+00    rms(broyden)= 0.76424E+00
  rms(prec ) = 0.10968E+01
  weight for this iteration     100.00

 eigenvalues of (default mixing * dielectric matrix)
  average eigenvalue GAMMA=   0.6842
  1.5671  1.5671  0.6477  0.6477  0.1566  0.1116  0.0917

 Free energy of the ion-electron system (eV)
  ---------------------------------------------------
  alpha Z        PSCENC =      3273.13650331
  Ewald energy   TEWEN  =    -46136.49708029
  -Hartree energ DENC   =    -11721.46681473
  -exchange      EXHF   =         0.00000000
  -V(xc)+E(xc)   XCENC  =      1968.70804199
  PAW double counting   =     53982.31585513   -55529.95817575
  entropy T*S    EENTRO =        -0.04340851
  eigenvalues    EBANDS =     -4829.61290807
  atomic energy  EATOM  =     58732.54669876
  Solvation  Ediel_sol  =         0.00000000
  ---------------------------------------------------
  free energy    TOTEN  =      -260.87128815 eV

  energy without entropy =     -260.82787964  energy(sigma->0) =     -260.84958390


--------------------------------------------------------------------------------------------------------




--------------------------------------- Iteration      1(  13)  ---------------------------------------


    POTLOK:  cpu time      0.0230: real time      0.0235
    SETDIJ:  cpu time      0.0057: real time      0.0057
     EDDAV:  cpu time     11.7626: real time     11.9757
       DOS:  cpu time      0.0053: real time      0.0054
    CHARGE:  cpu time      0.3289: real time      0.3323
    MIXING:  cpu time      0.0011: real time      0.0011
    --------------------------------------------
      LOOP:  cpu time     12.1266: real time     12.3437

 eigenvalue-minimisations  : 13480
 total energy-change (2. order) : 0.1596659E+00  (-0.8735870E-01)
 number of electron     377.0000204 magnetization 
 augmentation part      209.5415096 magnetization 

 Broyden mixing:
  rms(total) = 0.40697E+00    rms(broyden)= 0.40696E+00
  rms(prec ) = 0.51501E+00
  weight for this iteration     100.00

 eigenvalues of (default mixing * dielectric matrix)
  average eigenvalue GAMMA=   0.8412
  2.0421  2.0421  0.8751  0.7054  0.7054  0.1566  0.1114  0.0919

 Free energy of the ion-electron system (eV)
  ---------------------------------------------------
  alpha Z        PSCENC =      3273.13650331
  Ewald energy   TEWEN  =    -46136.49708029
  -Hartree energ DENC   =    -11668.80703052
  -exchange      EXHF   =         0.00000000
  -V(xc)+E(xc)   XCENC  =      1966.29758355
  PAW double counting   =     54219.90399224   -55779.85834124
  entropy T*S    EENTRO =        -0.04193715
  eigenvalues    EBANDS =     -4867.39201092
  atomic energy  EATOM  =     58732.54669876
  Solvation  Ediel_sol  =         0.00000000
  ---------------------------------------------------
  free energy    TOTEN  =      -260.71162226 eV

  energy without entropy =     -260.66968510  energy(sigma->0) =     -260.69065368


--------------------------------------------------------------------------------------------------------




--------------------------------------- Iteration      1(  14)  ---------------------------------------


    POTLOK:  cpu time      0.0236: real time      0.0295
    SETDIJ:  cpu time      0.0057: real time      0.0058
     EDDAV:  cpu time     11.7657: real time     11.9265
       DOS:  cpu time      0.0037: real time      0.0037
    CHARGE:  cpu time      0.3421: real time      0.3542
    MIXING:  cpu time      0.0011: real time      0.0011
    --------------------------------------------
      LOOP:  cpu time     12.1418: real time     12.3207

 eigenvalue-minimisations  : 13432
 total energy-change (2. order) : 0.1309241E-01  (-0.1240128E-01)
 number of electron     377.0000203 magnetization 
 augmentation part      209.3869927 magnetization 

 Broyden mixing:
  rms(total) = 0.15696E+00    rms(broyden)= 0.15696E+00
  rms(prec ) = 0.27662E+00
  weight for this iteration     100.00

 eigenvalues of (default mixing * dielectric matrix)
  average eigenvalue GAMMA=   0.8976
  2.5412  1.4693  1.4693  0.8272  0.7057  0.7057  0.1566  0.1114  0.0919

 Free energy of the ion-electron system (eV)
  ---------------------------------------------------
  alpha Z        PSCENC =      3273.13650331
  Ewald energy   TEWEN  =    -46136.49708029
  -Hartree energ DENC   =    -11667.71946789
  -exchange      EXHF   =         0.00000000
  -V(xc)+E(xc)   XCENC  =      1966.35134015
  PAW double counting   =     54402.81703375   -55972.04434889
  entropy T*S    EENTRO =        -0.04165426
  eigenvalues    EBANDS =     -4859.24755449
  atomic energy  EATOM  =     58732.54669876
  Solvation  Ediel_sol  =         0.00000000
  ---------------------------------------------------
  free energy    TOTEN  =      -260.69852985 eV

  energy without entropy =     -260.65687559  energy(sigma->0) =     -260.67770272


--------------------------------------------------------------------------------------------------------




--------------------------------------- Iteration      1(  15)  ---------------------------------------


    POTLOK:  cpu time      0.0236: real time      0.0242
    SETDIJ:  cpu time      0.0057: real time      0.0057
     EDDAV:  cpu time     13.4518: real time     13.6633
       DOS:  cpu time      0.0036: real time      0.0036
    CHARGE:  cpu time      0.3229: real time      0.3267
    MIXING:  cpu time      0.0012: real time      0.0012
    --------------------------------------------
      LOOP:  cpu time     13.8087: real time     14.0248

 eigenvalue-minimisations  : 15464
 total energy-change (2. order) : 0.7357110E-02  (-0.2307981E-02)
 number of electron     377.0000203 magnetization 
 augmentation part      209.4187164 magnetization 

 Broyden mixing:
  rms(total) = 0.68867E-01    rms(broyden)= 0.68863E-01
  rms(prec ) = 0.11356E+00
  weight for this iteration     100.00

 eigenvalues of (default mixing * dielectric matrix)
  average eigenvalue GAMMA=   0.9746
  2.5865  1.7976  1.7976  1.0188  0.7931  0.6961  0.6961  0.1566  0.1114  0.0919

 Free energy of the ion-electron system (eV)
  ---------------------------------------------------
  alpha Z        PSCENC =      3273.13650331
  Ewald energy   TEWEN  =    -46136.49708029
  -Hartree energ DENC   =    -11665.11549018
  -exchange      EXHF   =         0.00000000
  -V(xc)+E(xc)   XCENC  =      1966.23454430
  PAW double counting   =     54538.93131883   -56109.14893883
  entropy T*S    EENTRO =        -0.04126541
  eigenvalues    EBANDS =     -4860.73746323
  atomic energy  EATOM  =     58732.54669876
  Solvation  Ediel_sol  =         0.00000000
  ---------------------------------------------------
  free energy    TOTEN  =      -260.69117274 eV

  energy without entropy =     -260.64990733  energy(sigma->0) =     -260.67054003


--------------------------------------------------------------------------------------------------------




--------------------------------------- Iteration      1(  16)  ---------------------------------------


    POTLOK:  cpu time      0.0230: real time      0.0236
    SETDIJ:  cpu time      0.0057: real time      0.0057
     EDDAV:  cpu time     12.1964: real time     12.3663
       DOS:  cpu time      0.0036: real time      0.0036
    CHARGE:  cpu time      0.3182: real time      0.3215
    MIXING:  cpu time      0.0013: real time      0.0013
    --------------------------------------------
      LOOP:  cpu time     12.5482: real time     12.7221

 eigenvalue-minimisations  : 13824
 total energy-change (2. order) : 0.1696745E-02  (-0.3208330E-03)
 number of electron     377.0000203 magnetization 
 augmentation part      209.3871673 magnetization 

 Broyden mixing:
  rms(total) = 0.45609E-01    rms(broyden)= 0.45609E-01
  rms(prec ) = 0.81081E-01
  weight for this iteration     100.00

 eigenvalues of (default mixing * dielectric matrix)
  average eigenvalue GAMMA=   1.0171
  2.5424  1.9462  1.9462  1.2029  1.0183  0.7040  0.7040  0.7647  0.1566  0.1114
  0.0919

 Free energy of the ion-electron system (eV)
  ---------------------------------------------------
  alpha Z        PSCENC =      3273.13650331
  Ewald energy   TEWEN  =    -46136.49708029
  -Hartree energ DENC   =    -11667.37597029
  -exchange      EXHF   =         0.00000000
  -V(xc)+E(xc)   XCENC  =      1966.34085304
  PAW double counting   =     54586.04330208   -56156.01833713
  entropy T*S    EENTRO =        -0.04131725
  eigenvalues    EBANDS =     -4858.82412823
  atomic energy  EATOM  =     58732.54669876
  Solvation  Ediel_sol  =         0.00000000
  ---------------------------------------------------
  free energy    TOTEN  =      -260.68947599 eV

  energy without entropy =     -260.64815875  energy(sigma->0) =     -260.66881737


--------------------------------------------------------------------------------------------------------




--------------------------------------- Iteration      1(  17)  ---------------------------------------


    POTLOK:  cpu time      0.0229: real time      0.0234
    SETDIJ:  cpu time      0.0064: real time      0.0065
     EDDAV:  cpu time     12.8356: real time     13.0415
       DOS:  cpu time      0.0039: real time      0.0040
    CHARGE:  cpu time      0.3220: real time      0.3255
    MIXING:  cpu time      0.0012: real time      0.0012
    --------------------------------------------
      LOOP:  cpu time     13.1921: real time     13.4020

 eigenvalue-minimisations  : 14776
 total energy-change (2. order) : 0.1044278E-02  (-0.3715768E-03)
 number of electron     377.0000203 magnetization 
 augmentation part      209.3398591 magnetization 

 Broyden mixing:
  rms(total) = 0.11658E-01    rms(broyden)= 0.11656E-01
  rms(prec ) = 0.19234E-01
  weight for this iteration     100.00

 eigenvalues of (default mixing * dielectric matrix)
  average eigenvalue GAMMA=   1.0549
  2.5845  2.0248  2.0248  1.4310  1.1427  0.7010  0.7010  0.8986  0.7912  0.1566
  0.1114  0.0919

 Free energy of the ion-electron system (eV)
  ---------------------------------------------------
  alpha Z        PSCENC =      3273.13650331
  Ewald energy   TEWEN  =    -46136.49708029
  -Hartree energ DENC   =    -11670.12362977
  -exchange      EXHF   =         0.00000000
  -V(xc)+E(xc)   XCENC  =      1966.47278763
  PAW double counting   =     54622.88227291   -56192.70254589
  entropy T*S    EENTRO =        -0.04119060
  eigenvalues    EBANDS =     -4856.36224777
  atomic energy  EATOM  =     58732.54669876
  Solvation  Ediel_sol  =         0.00000000
  ---------------------------------------------------
  free energy    TOTEN  =      -260.68843172 eV

  energy without entropy =     -260.64724112  energy(sigma->0) =     -260.66783642


--------------------------------------------------------------------------------------------------------




--------------------------------------- Iteration      1(  18)  ---------------------------------------


    POTLOK:  cpu time      0.0228: real time      0.0234
    SETDIJ:  cpu time      0.0057: real time      0.0058
     EDDAV:  cpu time     12.7086: real time     12.9288
       DOS:  cpu time      0.0041: real time      0.0043
    CHARGE:  cpu time      0.3882: real time      0.3917
    MIXING:  cpu time      0.0013: real time      0.0013
    --------------------------------------------
      LOOP:  cpu time     13.1307: real time     13.3554

 eigenvalue-minimisations  : 14848
 total energy-change (2. order) : 0.1144680E-04  (-0.2123319E-04)
 number of electron     377.0000203 magnetization 
 augmentation part      209.3355243 magnetization 

 Broyden mixing:
  rms(total) = 0.65491E-02    rms(broyden)= 0.65487E-02
  rms(prec ) = 0.11505E-01
  weight for this iteration     100.00

 eigenvalues of (default mixing * dielectric matrix)
  average eigenvalue GAMMA=   1.1049
  2.5672  2.5672  1.7628  1.7628  1.1480  1.1480  0.7015  0.7015  0.7637  0.8811
  0.1566  0.1114  0.0919

 Free energy of the ion-electron system (eV)
  ---------------------------------------------------
  alpha Z        PSCENC =      3273.13650331
  Ewald energy   TEWEN  =    -46136.49708029
  -Hartree energ DENC   =    -11670.27627934
  -exchange      EXHF   =         0.00000000
  -V(xc)+E(xc)   XCENC  =      1966.48026414
  PAW double counting   =     54632.39640986   -56202.19295241
  entropy T*S    EENTRO =        -0.04119578
  eigenvalues    EBANDS =     -4856.24078853
  atomic energy  EATOM  =     58732.54669876
  Solvation  Ediel_sol  =         0.00000000
  ---------------------------------------------------
  free energy    TOTEN  =      -260.68842027 eV

  energy without entropy =     -260.64722449  energy(sigma->0) =     -260.66782238


--------------------------------------------------------------------------------------------------------




--------------------------------------- Iteration      1(  19)  ---------------------------------------


    POTLOK:  cpu time      0.0225: real time      0.0232
    SETDIJ:  cpu time      0.0057: real time      0.0057
     EDDAV:  cpu time     12.7099: real time     12.8557
       DOS:  cpu time      0.0040: real time      0.0040
    CHARGE:  cpu time      0.3746: real time      0.3780
    MIXING:  cpu time      0.0013: real time      0.0013
    --------------------------------------------
      LOOP:  cpu time     13.1180: real time     13.2679

 eigenvalue-minimisations  : 15256
 total energy-change (2. order) : 0.2087436E-04  (-0.4525131E-05)
 number of electron     377.0000203 magnetization 
 augmentation part      209.3328107 magnetization 

 Broyden mixing:
  rms(total) = 0.17371E-02    rms(broyden)= 0.17365E-02
  rms(prec ) = 0.23464E-02
  weight for this iteration     100.00

 eigenvalues of (default mixing * dielectric matrix)
  average eigenvalue GAMMA=   1.1360
  2.6066  2.4277  1.9687  1.9687  1.2486  1.2486  0.7018  0.7018  0.9904  0.7756
  0.9058  0.1566  0.1114  0.0919

 Free energy of the ion-electron system (eV)
  ---------------------------------------------------
  alpha Z        PSCENC =      3273.13650331
  Ewald energy   TEWEN  =    -46136.49708029
  -Hartree energ DENC   =    -11670.48882926
  -exchange      EXHF   =         0.00000000
  -V(xc)+E(xc)   XCENC  =      1966.49005811
  PAW double counting   =     54637.16216034   -56206.89775319
  entropy T*S    EENTRO =        -0.04117623
  eigenvalues    EBANDS =     -4856.09898093
  atomic energy  EATOM  =     58732.54669876
  Solvation  Ediel_sol  =         0.00000000
  ---------------------------------------------------
  free energy    TOTEN  =      -260.68839940 eV

  energy without entropy =     -260.64722317  energy(sigma->0) =     -260.66781128


--------------------------------------------------------------------------------------------------------




--------------------------------------- Iteration      1(  20)  ---------------------------------------


    POTLOK:  cpu time      0.0228: real time      0.0234
    SETDIJ:  cpu time      0.0057: real time      0.0057
     EDDAV:  cpu time     11.3661: real time     11.5193
       DOS:  cpu time      0.0037: real time      0.0037
    CHARGE:  cpu time      0.3194: real time      0.3226
    MIXING:  cpu time      0.0014: real time      0.0014
    --------------------------------------------
      LOOP:  cpu time     11.7190: real time     11.8761

 eigenvalue-minimisations  : 12424
 total energy-change (2. order) :-0.3426721E-05  (-0.5750329E-06)
 number of electron     377.0000203 magnetization 
 augmentation part      209.3330319 magnetization 

 Broyden mixing:
  rms(total) = 0.71969E-03    rms(broyden)= 0.71964E-03
  rms(prec ) = 0.12188E-02
  weight for this iteration     100.00

 eigenvalues of (default mixing * dielectric matrix)
  average eigenvalue GAMMA=   1.1357
  2.8094  2.2291  2.0370  2.0370  1.4010  1.4010  0.1566  0.1114  0.0919  1.0160
  0.7016  0.7016  0.8671  0.7962  0.6786

 Free energy of the ion-electron system (eV)
  ---------------------------------------------------
  alpha Z        PSCENC =      3273.13650331
  Ewald energy   TEWEN  =    -46136.49708029
  -Hartree energ DENC   =    -11670.44662821
  -exchange      EXHF   =         0.00000000
  -V(xc)+E(xc)   XCENC  =      1966.48821026
  PAW double counting   =     54636.23710429   -56205.99162085
  entropy T*S    EENTRO =        -0.04117492
  eigenvalues    EBANDS =     -4856.12041517
  atomic energy  EATOM  =     58732.54669876
  Solvation  Ediel_sol  =         0.00000000
  ---------------------------------------------------
  free energy    TOTEN  =      -260.68840282 eV

  energy without entropy =     -260.64722790  energy(sigma->0) =     -260.66781536


--------------------------------------------------------------------------------------------------------




--------------------------------------- Iteration      1(  21)  ---------------------------------------


    POTLOK:  cpu time      0.0328: real time      0.0334
    SETDIJ:  cpu time      0.0078: real time      0.0079
     EDDAV:  cpu time      8.0071: real time      8.1010
       DOS:  cpu time      0.0036: real time      0.0036
    --------------------------------------------
      LOOP:  cpu time      8.0512: real time      8.1459

 eigenvalue-minimisations  :  7512
 total energy-change (2. order) :-0.4260801E-06  (-0.4721645E-07)
 number of electron     377.0000203 magnetization 
 augmentation part      209.3330319 magnetization 

 Free energy of the ion-electron system (eV)
  ---------------------------------------------------
  alpha Z        PSCENC =      3273.13650331
  Ewald energy   TEWEN  =    -46136.49708029
  -Hartree energ DENC   =    -11670.44110118
  -exchange      EXHF   =         0.00000000
  -V(xc)+E(xc)   XCENC  =      1966.48793105
  PAW double counting   =     54636.19863800   -56205.95562644
  entropy T*S    EENTRO =        -0.04117384
  eigenvalues    EBANDS =     -4856.12319261
  atomic energy  EATOM  =     58732.54669876
  Solvation  Ediel_sol  =         0.00000000
  ---------------------------------------------------
  free energy    TOTEN  =      -260.68840325 eV

  energy without entropy =     -260.64722941  energy(sigma->0) =     -260.66781633


--------------------------------------------------------------------------------------------------------




 average (electrostatic) potential at core
  the test charge radii are     0.9577
  (the norm of the test charge is              1.0000)
       1 -64.3245       2 -64.3359       3 -64.2357       4 -64.3359       5 -64.2357
       6 -64.2113       7 -64.2113       8 -64.2113       9 -64.2113      10 -64.2113
      11 -64.2357      12 -64.2357      13 -64.2357      14 -64.3359      15 -64.2113
      16 -64.2113      17 -64.2357      18 -64.2357      19 -64.2357      20 -64.2357
      21 -64.2113      22 -64.2113      23 -64.3359      24 -64.2357      25 -64.2357
      26 -64.2357      27 -64.2113      28 -64.2113      29 -64.2113
 
 
 
 E-fermi :  10.5979     XC(G=0): -14.0449     alpha+bet :-19.2859

 Fermi energy:        10.5979322442

 k-point     1 :       0.0625    0.0625    0.0625
  band No.  band energies     occupation 
      1     -38.0385      2.00000
      2     -37.9187      2.00000
      3     -37.9187      2.00000
      4     -37.8987      2.00000
      5     -37.8761      2.00000
      6     -37.8761      2.00000
      7     -37.8290      2.00000
      8     -37.8263      2.00000
      9     -37.8263      2.00000
     10     -37.7600      2.00000
     11     -37.7600      2.00000
     12     -37.7532      2.00000
     13     -37.7229      2.00000
     14     -37.7185      2.00000
     15     -37.7185      2.00000
     16     -37.7138      2.00000
     17     -37.6994      2.00000
     18     -37.6994      2.00000
     19     -37.6850      2.00000
     20     -37.6850      2.00000
     21     -37.6677      2.00000
     22     -37.6187      2.00000
     23     -37.6187      2.00000
     24     -37.5987      2.00000
     25     -37.5987      2.00000
     26     -37.5929      2.00000
     27     -37.5836      2.00000
     28     -37.5836      2.00000
     29     -37.5585      2.00000
     30     -37.5472      2.00000
     31     -37.5469      2.00000
     32     -37.5182      2.00000
     33     -37.5182      2.00000
     34     -37.5165      2.00000
     35     -37.5165      2.00000
     36     -37.4689      2.00000
     37     -37.4689      2.00000
     38     -37.4683      2.00000
     39     -37.4260      2.00000
     40     -37.4255      2.00000
     41     -37.4255      2.00000
     42     -37.4064      2.00000
     43     -37.4064      2.00000
     44     -37.3984      2.00000
     45     -37.3891      2.00000
     46     -37.3844      2.00000
     47     -37.3844      2.00000
     48     -37.3715      2.00000
     49     -37.3552      2.00000
     50     -37.3552      2.00000
     51     -37.3458      2.00000
     52     -37.3458      2.00000
     53     -37.3097      2.00000
     54     -37.3000      2.00000
     55     -37.2967      2.00000
     56     -37.2967      2.00000
     57     -37.2936      2.00000
     58     -37.2936      2.00000
     59     -37.2813      2.00000
     60     -37.2787      2.00000
     61     -37.2675      2.00000
     62     -37.2620      2.00000
     63     -37.2620      2.00000
     64     -37.2555      2.00000
     65     -37.2532      2.00000
     66     -37.2532      2.00000
     67     -37.2221      2.00000
     68     -37.2120      2.00000
     69     -37.2120      2.00000
     70     -37.2062      2.00000
     71     -37.1998      2.00000
     72     -37.1974      2.00000
     73     -37.1974      2.00000
     74     -37.1335      2.00000
     75     -37.1335      2.00000
     76     -37.1233      2.00000
     77     -37.0932      2.00000
     78     -37.0932      2.00000
     79     -37.0872      2.00000
     80     -37.0805      2.00000
     81     -37.0805      2.00000
     82     -37.0233      2.00000
     83     -37.0199      2.00000
     84     -37.0199      2.00000
     85     -36.9793      2.00000
     86     -36.9785      2.00000
     87     -36.9785      2.00000
     88       2.3834      2.00000
     89       5.2624      2.00000
     90       5.2792      2.00000
     91       5.2792      2.00000
     92       5.7457      2.00000
     93       5.7938      2.00000
     94       5.7938      2.00000
     95       5.8149      2.00000
     96       5.9440      2.00000
     97       5.9440      2.00000
     98       6.1604      2.00000
     99       6.2384      2.00000
    100       6.2384      2.00000
    101       6.2497      2.00000
    102       6.3797      2.00000
    103       6.4259      2.00000
    104       6.4259      2.00000
    105       6.4722      2.00000
    106       6.4722      2.00000
    107       6.6097      2.00000
    108       6.7486      2.00000
    109       6.7486      2.00000
    110       6.8724      2.00000
    111       7.0753      2.00000
    112       7.0753      2.00000
    113       7.1741      2.00000
    114       7.2628      2.00000
    115       7.2680      2.00000
    116       7.2680      2.00000
    117       7.4511      2.00000
    118       7.4511      2.00000
    119       7.4977      2.00000
    120       7.4988      2.00000
    121       7.5537      2.00000
    122       7.5537      2.00000
    123       7.6030      2.00000
    124       7.6030      2.00000
    125       7.6439      2.00000
    126       7.6451      2.00000
    127       8.0116      2.00000
[...]
     89       4.4050      2.00000
     90       4.4050      2.00000
     91       4.4314      2.00000
     92       4.4542      2.00000
     93       4.8475      2.00000
     94       5.8625      2.00000
     95       6.0717      2.00000
     96       6.3432      2.00000
     97       6.3556      2.00000
     98       6.3556      2.00000
     99       6.3735      2.00000
    100       6.3735      2.00000
    101       6.3946      2.00000
    102       6.4235      2.00000
    103       6.5786      2.00000
    104       6.5786      2.00000
    105       6.5812      2.00000
    106       6.5989      2.00000
    107       6.6161      2.00000
    108       6.6161      2.00000
    109       6.8380      2.00000
    110       6.8614      2.00000
    111       7.1234      2.00000
    112       7.1472      2.00000
    113       7.3344      2.00000
    114       7.3392      2.00000
    115       7.3392      2.00000
    116       7.3807      2.00000
    117       7.3807      2.00000
    118       7.4137      2.00000
    119       7.4365      2.00000
    120       7.4365      2.00000
    121       7.4738      2.00000
    122       7.7955      2.00000
    123       7.8003      2.00000
    124       7.8003      2.00000
    125       7.9035      2.00000
    126       7.9321      2.00000
    127       7.9381      2.00000
    128       7.9381      2.00000
    129       7.9467      2.00000
    130       7.9532      2.00000
    131       7.9532      2.00000
    132       8.0146      2.00000
    133       8.0146      2.00000
    134       8.1166      2.00000
    135       8.1332      2.00000
    136       8.1336      2.00000
    137       8.1664      2.00000
    138       8.2846      2.00000
    139       8.3165      2.00000
    140       8.3640      2.00000
    141       8.3729      2.00000
    142       8.3729      2.00000
    143       8.4792      2.00000
    144       8.5201      2.00000
    145       8.5201      2.00000
    146       8.6357      2.00000
    147       8.7039      2.00000
    148       8.7669      2.00000
    149       8.7669      2.00000
    150       8.7776      2.00000
    151       8.9637      2.00000
    152       9.0206      2.00000
    153       9.0262      2.00000
    154       9.0262      2.00000
    155       9.0552      2.00000
    156       9.1809      2.00000
    157       9.1831      2.00000
    158       9.1831      2.00000
    159       9.2557      2.00000
    160       9.2641      2.00000
    161       9.3242      2.00000
    162       9.3242      2.00000
    163       9.3268      2.00000
    164       9.3860      2.00000
    165       9.3860      2.00000
    166       9.4017      2.00000
    167       9.4138      2.00000
    168       9.5045      2.00000
    169       9.5321      2.00000
    170       9.5428      2.00000
    171       9.5923      2.00000
    172       9.6073      2.00000
    173       9.6073      2.00000
    174       9.8072      2.00000
    175       9.8072      2.00000
    176       9.8508      2.00000
    177      10.2007      2.00000
    178      10.2042      2.00000
    179      10.2042      2.00000
    180      10.2433      2.00000
    181      10.2985      2.00000
    182      10.3001      2.00000
    183      10.3539      2.00000
    184      10.3539      2.00000
    185      10.4071      2.00000
    186      10.5903      1.17034
    187      10.5941      1.08734
    188      10.5941      1.08733
    189      10.6326      0.32737
    190      10.6326      0.32737
    191      10.6378      0.25888
    192      10.8924      0.00000
    193      10.9105      0.00000
    194      10.9483      0.00000
    195      10.9754      0.00000
    196      10.9754      0.00000
    197      11.0039      0.00000
    198      11.0487      0.00000
    199      11.0728      0.00000
    200      11.0776      0.00000
    201      11.0776      0.00000
    202      11.1306      0.00000
    203      11.1506      0.00000
    204      11.1506      0.00000
    205      11.2748      0.00000
    206      11.3898      0.00000
    207      11.4306      0.00000
    208      11.4306      0.00000
    209      11.4930      0.00000
    210      11.5339      0.00000
    211      11.5587      0.00000
    212      11.5640      0.00000
    213      11.5640      0.00000
    214      11.6926      0.00000
    215      11.6926      0.00000
    216      11.7836      0.00000
    217      11.8523      0.00000
    218      11.9308      0.00000
    219      11.9421      0.00000
    220      11.9421      0.00000
    221      12.0021      0.00000
    222      12.0391      0.00000
    223      12.0391      0.00000
    224      12.1108      0.00000
    225      12.1765      0.00000
    226      12.2159      0.00000
    227      12.2159      0.00000
    228      12.2483      0.00000
    229      12.2866      0.00000
    230      12.3087      0.00000
    231      12.3123      0.00000
    232      12.3347      0.00000


--------------------------------------------------------------------------------------------------------


 soft charge-density along one line, spin component           1
         0         1         2         3         4         5         6         7         8         9
 total charge-density along one line
 
 pseudopotential strength for first ion, spin component:           1
-39.787  -0.000  -0.000   6.714   0.000   0.000  -0.000  -0.000
 -0.000 -39.787  -0.000   0.000   6.714   0.000  -0.006  -0.000
 -0.000  -0.000 -39.787   0.000   0.000   6.714  -0.000  -0.006
  6.714   0.000   0.000   5.452  -0.000  -0.000   0.000   0.000
  0.000   6.714   0.000  -0.000   5.452  -0.000   0.001   0.000
  0.000   0.000   6.714  -0.000  -0.000   5.452   0.000   0.001
 -0.000  -0.006  -0.000   0.000   0.001   0.000  -0.667  -0.000
 -0.000  -0.000  -0.006   0.000   0.000   0.001  -0.000  -0.667
  0.000  -0.000   0.000  -0.000   0.000  -0.000  -0.000   0.000
 -0.006  -0.000  -0.000   0.001   0.000   0.000  -0.000  -0.000
  0.000  -0.000  -0.000  -0.000   0.000   0.000   0.000  -0.000
 -0.000  -0.006  -0.000   0.000   0.001   0.000  -1.186  -0.000
 -0.000  -0.000  -0.006   0.000   0.000   0.001  -0.000  -1.186
  0.000  -0.000   0.000  -0.000   0.000  -0.000  -0.000   0.000
 -0.006  -0.000  -0.000   0.001   0.000   0.000  -0.000  -0.000
  0.000  -0.000  -0.000  -0.000   0.000   0.000   0.000  -0.000
  0.000   0.000   0.000   0.000   0.000   0.000   0.000   0.000
  0.000   0.000   0.000   0.000   0.000   0.000   0.000   0.000
 total augmentation occupancy for first ion, spin component:           1
  1.988   0.000  -0.000  -0.044  -0.000   0.000  -0.000   0.000  -0.000  -0.004   0.000   0.000  -0.000   0.000   0.004  -0.000
  0.000   1.988  -0.000  -0.000  -0.044   0.000  -0.004  -0.000  -0.000  -0.000   0.000   0.004   0.000   0.000   0.000  -0.000
 -0.000  -0.000   1.988   0.000   0.000  -0.044   0.000  -0.004  -0.000   0.000   0.000  -0.000   0.004   0.000  -0.000  -0.000
 -0.044  -0.000   0.000   0.203   0.000  -0.000  -0.000   0.000  -0.000  -0.005   0.000   0.000  -0.000   0.000   0.016  -0.000
 -0.000  -0.044   0.000   0.000   0.203  -0.000  -0.005  -0.000   0.000  -0.000  -0.000   0.016   0.000   0.000   0.000  -0.000
  0.000   0.000  -0.044  -0.000  -0.000   0.203  -0.000  -0.005  -0.000   0.000   0.000  -0.000   0.016   0.000  -0.000  -0.000
 -0.000  -0.004   0.000  -0.000  -0.005  -0.000   1.334  -0.000   0.000   0.000  -0.000  -0.782   0.000  -0.000  -0.000   0.000
  0.000  -0.000  -0.004   0.000  -0.000  -0.005  -0.000   1.334   0.000  -0.000  -0.000   0.000  -0.782  -0.000   0.000   0.000
 -0.000  -0.000  -0.000  -0.000   0.000  -0.000   0.000   0.000   1.015  -0.000   0.000  -0.000  -0.000  -0.636   0.000  -0.000
 -0.004  -0.000   0.000  -0.005  -0.000   0.000   0.000  -0.000  -0.000   1.334  -0.000  -0.000   0.000   0.000  -0.782   0.000
  0.000   0.000   0.000   0.000   0.000   0.000  -0.000  -0.000   0.000  -0.000   1.015   0.000   0.000  -0.000   0.000  -0.636
  0.000   0.004  -0.000   0.000   0.016  -0.000  -0.782   0.000  -0.000  -0.000   0.000   1.363  -0.000   0.000   0.000  -0.000
 -0.000   0.000   0.004  -0.000   0.000   0.016   0.000  -0.782  -0.000   0.000   0.000  -0.000   1.363   0.000  -0.000  -0.000
  0.000   0.000   0.000   0.000   0.000   0.000  -0.000  -0.000  -0.636   0.000  -0.000   0.000   0.000   1.333  -0.000   0.000
  0.004   0.000  -0.000   0.016   0.000  -0.000  -0.000   0.000   0.000  -0.782   0.000   0.000  -0.000  -0.000   1.363  -0.000
 -0.000  -0.000  -0.000  -0.000  -0.000  -0.000   0.000   0.000  -0.000   0.000  -0.636   0.000  -0.000   0.000  -0.000   1.333
  0.000   0.000   0.000   0.000  -0.000  -0.000   0.000  -0.000   0.000   0.000   0.000  -0.000   0.000   0.000  -0.000  -0.000
 -0.000   0.000   0.000   0.000   0.000   0.000   0.000  -0.000  -0.000   0.000   0.000   0.000   0.000   0.000  -0.000  -0.000


------------------------ aborting loop because EDIFF is reached ----------------------------------------


    CHARGE:  cpu time      0.3762: real time      0.3801
    FORLOC:  cpu time      0.0038: real time      0.0038
    FORNL :  cpu time      3.3138: real time      3.3396
    STRESS:  cpu time      3.3657: real time      3.3959
    FORCOR:  cpu time      0.0254: real time      0.0257
    FORHAR:  cpu time      0.0083: real time      0.0084
    MIXING:  cpu time      0.0011: real time      0.0011
    OFIELD:  cpu time      0.0001: real time      0.0001

  FORCE on cell =-STRESS in cart. coord.  units (eV):
  Direction    XX          YY          ZZ          XY          YZ          ZX
  --------------------------------------------------------------------------------------
  Alpha Z  3273.13650  3273.13650  3273.13650
  Ewald  -15378.88261-15378.88261-15378.88261    -0.00000    -0.00000    -0.00000
  Hartree  3890.15168  3890.15168  3890.15168    -0.00000    -0.00000    -0.00000
  E(xc)   -2240.51367 -2240.51367 -2240.51367    -0.00010    -0.00010    -0.00010
  Local    4524.07513  4524.07513  4524.07513    -0.00107    -0.00107    -0.00107
  n-local -1016.31311 -1014.47878 -1015.20019     0.09707    -0.14569    -0.34777
  augment  2858.85285  2858.85285  2858.85285     0.00077     0.00077     0.00077
  Kinetic  4096.06085  4094.11161  4094.71847    -0.97421    -0.16133     0.02690
  Fock        0.00000     0.00000     0.00000     0.00000     0.00000     0.00000
  -------------------------------------------------------------------------------------
  Total       6.45284     6.45284     6.45284    -0.00000    -0.00000    -0.00000
  in kB      33.36789    33.36789    33.36789    -0.00000    -0.00000    -0.00000
  external pressure =       33.37 kB  Pullay stress =        0.00 kB


 VOLUME and BASIS-vectors are now :
 -----------------------------------------------------------------------------
  energy-cutoff  :      500.00
  volume of cell :      309.84
      direct lattice vectors                 reciprocal lattice vectors
    -4.262760000  4.262760000  4.262760000     0.000000000  0.117294898  0.117294898
     4.262760000 -4.262760000  4.262760000     0.117294898  0.000000000  0.117294898
     4.262760000  4.262760000 -4.262760000     0.117294898  0.117294898  0.000000000

  length of vectors
     7.383316900  7.383316900  7.383316900     0.165880036  0.165880036  0.165880036


 FORCES acting on ions
    electron-ion (+dipol)            ewald-force                    non-local-force                 convergence-correction
 -----------------------------------------------------------------------------------------------
   -.177E-04 -.177E-04 -.284E-04   0.412E-12 0.355E-12 0.114E-12   -.388E-17 -.388E-17 -.393E-17   0.526E-06 0.526E-06 0.526E-06
   0.105E+01 -.105E+01 -.105E+01   -.256E+00 0.256E+00 0.256E+00   -.783E+00 0.783E+00 0.783E+00   -.265E-02 0.265E-02 0.265E-02
   -.175E+02 0.175E+02 0.167E+02   0.172E+02 -.172E+02 -.171E+02   0.303E+00 -.303E+00 0.316E+00   0.106E-02 -.106E-02 0.138E-02
   -.105E+01 0.105E+01 -.105E+01   0.256E+00 -.256E+00 0.256E+00   0.783E+00 -.783E+00 0.783E+00   0.265E-02 -.265E-02 0.265E-02
   0.175E+02 -.175E+02 0.167E+02   -.172E+02 0.172E+02 -.171E+02   -.303E+00 0.303E+00 0.316E+00   -.106E-02 0.106E-02 0.138E-02
   0.917E+01 -.917E+01 -.723E+01   -.103E+02 0.103E+02 0.740E+01   0.104E+01 -.104E+01 -.110E+00   -.134E-02 0.134E-02 -.580E-02
   -.917E+01 0.917E+01 -.723E+01   0.103E+02 -.103E+02 0.740E+01   -.104E+01 0.104E+01 -.110E+00   0.134E-02 -.134E-02 -.580E-02
   -.917E+01 -.917E+01 0.723E+01   0.103E+02 0.103E+02 -.740E+01   -.104E+01 -.104E+01 0.110E+00   0.134E-02 0.134E-02 0.580E-02
   0.723E+01 0.917E+01 0.917E+01   -.740E+01 -.103E+02 -.103E+02   0.110E+00 0.104E+01 0.104E+01   0.580E-02 -.134E-02 -.134E-02
   0.917E+01 0.723E+01 0.917E+01   -.103E+02 -.740E+01 -.103E+02   0.104E+01 0.110E+00 0.104E+01   -.134E-02 0.580E-02 -.134E-02
   0.175E+02 0.175E+02 -.167E+02   -.172E+02 -.172E+02 0.171E+02   -.303E+00 -.303E+00 -.316E+00   -.106E-02 -.106E-02 -.138E-02
   0.167E+02 -.175E+02 0.175E+02   -.171E+02 0.172E+02 -.172E+02   0.316E+00 0.303E+00 -.303E+00   0.138E-02 0.106E-02 -.106E-02
   -.175E+02 0.167E+02 0.175E+02   0.172E+02 -.171E+02 -.172E+02   0.303E+00 0.316E+00 -.303E+00   0.106E-02 0.138E-02 -.106E-02
   -.105E+01 -.105E+01 0.105E+01   0.256E+00 0.256E+00 -.256E+00   0.783E+00 0.783E+00 -.783E+00   0.265E-02 0.265E-02 -.265E-02
   -.917E+01 0.723E+01 -.917E+01   0.103E+02 -.740E+01 0.103E+02   -.104E+01 0.110E+00 -.104E+01   0.134E-02 0.580E-02 0.134E-02
   0.723E+01 -.917E+01 -.917E+01   -.740E+01 0.103E+02 0.103E+02   0.110E+00 -.104E+01 -.104E+01   0.580E-02 0.134E-02 0.134E-02
   -.167E+02 -.175E+02 -.175E+02   0.171E+02 0.172E+02 0.172E+02   -.316E+00 0.303E+00 0.303E+00   -.138E-02 0.105E-02 0.105E-02
   -.175E+02 -.167E+02 -.175E+02   0.172E+02 0.171E+02 0.172E+02   0.303E+00 -.316E+00 0.303E+00   0.105E-02 -.138E-02 0.105E-02
   0.175E+02 0.167E+02 -.175E+02   -.172E+02 -.171E+02 0.172E+02   -.303E+00 0.316E+00 0.303E+00   -.106E-02 0.138E-02 0.106E-02
   0.167E+02 0.175E+02 -.175E+02   -.171E+02 -.172E+02 0.172E+02   0.316E+00 -.303E+00 0.303E+00   0.138E-02 -.106E-02 0.106E-02
   0.917E+01 -.723E+01 -.917E+01   -.103E+02 0.740E+01 0.103E+02   0.104E+01 -.110E+00 -.104E+01   -.134E-02 -.580E-02 0.134E-02
   -.723E+01 0.917E+01 -.917E+01   0.740E+01 -.103E+02 0.103E+02   -.110E+00 0.104E+01 -.104E+01   -.580E-02 -.134E-02 0.134E-02
   0.105E+01 0.105E+01 0.105E+01   -.256E+00 -.256E+00 -.256E+00   -.783E+00 -.783E+00 -.783E+00   -.265E-02 -.265E-02 -.265E-02
   0.175E+02 -.167E+02 0.175E+02   -.172E+02 0.171E+02 -.172E+02   -.303E+00 -.316E+00 -.303E+00   -.106E-02 -.138E-02 -.106E-02
   -.167E+02 0.175E+02 0.175E+02   0.171E+02 -.172E+02 -.172E+02   -.316E+00 -.303E+00 -.303E+00   -.138E-02 -.106E-02 -.106E-02
   -.175E+02 -.175E+02 -.167E+02   0.172E+02 0.172E+02 0.171E+02   0.303E+00 0.303E+00 -.316E+00   0.105E-02 0.105E-02 -.138E-02
   -.917E+01 -.723E+01 0.917E+01   0.103E+02 0.740E+01 -.103E+02   -.104E+01 -.110E+00 0.104E+01   0.134E-02 -.580E-02 -.134E-02
   -.723E+01 -.917E+01 0.917E+01   0.740E+01 0.103E+02 -.103E+02   -.110E+00 -.104E+01 0.104E+01   -.580E-02 0.134E-02 -.134E-02
   0.917E+01 0.917E+01 0.723E+01   -.103E+02 -.103E+02 -.740E+01   0.104E+01 0.104E+01 0.110E+00   -.134E-02 -.134E-02 0.580E-02
 -----------------------------------------------------------------------------------------------
   0.460E-06 0.460E-06 -.946E-07   0.959E-13 -.799E-12 0.853E-13   0.111E-14 -.155E-14 -.122E-14   -.180E-05 -.180E-05 -.180E-05
 
 
 POSITION                                       TOTAL-FORCE (eV/Angst)
 -----------------------------------------------------------------------------------
      0.00000      0.00000      0.00000         0.000000     -0.000000     -0.000000
     -1.55317      1.55317      1.55317         0.005360     -0.005360     -0.005360
     -1.22440      1.22440      3.94531         0.006701     -0.006701     -0.052130
      1.55317     -1.55317      1.55317        -0.005360      0.005360     -0.005360
      1.22440     -1.22440      3.94531        -0.006701      0.006701     -0.052130
     -0.75325      0.75325      6.12714        -0.103176      0.103176      0.052238
      0.75325     -0.75325      6.12714         0.103176     -0.103176      0.052238
      0.75325      0.75325      2.39838         0.103176      0.103176     -0.052238
     -1.86438      3.50951      3.50951        -0.052238     -0.103176     -0.103176
      3.50951     -1.86438      3.50951        -0.103176     -0.052238     -0.103176
      1.22440      1.22440      4.58021        -0.006701     -0.006701      0.052130
      3.94531     -1.22440      1.22440        -0.052130      0.006701     -0.006701
     -1.22440      3.94531      1.22440         0.006701     -0.052130     -0.006701
      1.55317      1.55317     -1.55317        -0.005360     -0.005360      0.005360
      0.75325      2.39838      0.75325         0.103176     -0.052238      0.103176
      2.39838      0.75325      0.75325        -0.052238      0.103176      0.103176
      0.31745      3.03836      3.03836         0.052130      0.006701      0.006701
      3.03836      0.31745      3.03836         0.006701      0.052130      0.006701
      1.22440      3.94531     -1.22440        -0.006701     -0.052130      0.006701
      3.94531      1.22440     -1.22440        -0.052130     -0.006701      0.006701
     -0.75325      6.12714      0.75325        -0.103176      0.052238      0.103176
      6.12714     -0.75325      0.75325         0.052238     -0.103176      0.103176
      2.70959      2.70959      2.70959         0.005360      0.005360      0.005360
      1.22440      4.58021      1.22440        -0.006701      0.052130     -0.006701
      4.58021      1.22440      1.22440         0.052130     -0.006701     -0.006701
      3.03836      3.03836      0.31745         0.006701      0.006701      0.052130
      0.75325      6.12714     -0.75325         0.103176      0.052238     -0.103176
      6.12714      0.75325     -0.75325         0.052238      0.103176     -0.103176
      3.50951      3.50951     -1.86438        -0.103176     -0.103176     -0.052238
 -----------------------------------------------------------------------------------
    total drift:                               -0.000001     -0.000001     -0.000002


--------------------------------------------------------------------------------------------------------



  FREE ENERGIE OF THE ION-ELECTRON SYSTEM (eV)
  ---------------------------------------------------
  free  energy   TOTEN  =      -260.68840325 eV

  energy  without entropy=     -260.64722941  energy(sigma->0) =     -260.66781633
 


--------------------------------------------------------------------------------------------------------


    POTLOK:  cpu time      0.0299: real time      0.0304


--------------------------------------------------------------------------------------------------------


     LOOP+:  cpu time    275.6977: real time    279.8075
    4ORBIT:  cpu time      0.0000: real time      0.0000

 total amount of memory used by VASP MPI-rank0    50538. kBytes
=======================================================================

   base      :      30000. kBytes
   nonl-proj :       4208. kBytes
   fftplans  :       1380. kBytes
   grid      :       1956. kBytes
   one-center:         62. kBytes
   wavefun   :      12932. kBytes
 
  
  
 General timing and accounting informations for this job:
 ========================================================
  
                  Total CPU time used (sec):      281.404
                            User time (sec):      256.118
                          System time (sec):       25.287
                         Elapsed time (sec):      290.827
  
                   Maximum memory used (kb):      231828.
                   Average memory used (kb):          N/A
  
                          Minor page faults:        21621
                          Major page faults:         2132
                 Voluntary context switches:          731
