 vasp.6.3.0 20Jan22 (build Oct 14 2024 11:24:38) complex                        
  
 executed on             LinuxIFC date 2025.05.02  12:46:40
 running on   64 total cores
 distrk:  each k-point on   64 cores,    1 groups
 distr:  one band on NCORE=   8 cores,    8 groups


--------------------------------------------------------------------------------------------------------


 INCAR:
   ISTART = 0            (Read existing wavefunction
   ISPIN = 1            (Non-Spin polarised DFT)
   LREAL = .FALSE.       (Projection operators: automatic)
   ENCUT = 500          (Cut-off energy for plane wave basis set, in eV)
   PREC = Accurate     (Precision level)
   LWAVE = .FALSE.       (Write WAVECAR or not)
   LCHARG = .FALSE.       (Write CHGCAR or not)
   ISYM = 0             (0: disable symmetry)
   SYMPREC = 1E-06         (Symmetry detection precision, default\=1E-5)
   NSW = 0
   IBRION = -1
   ISMEAR = 0            (gaussian smearing method)
   SIGMA = 0.05         (please check the width of the smearing)
   NELM = 60           (Max electronic SCF steps)
   EDIFF = 1E-06        (SCF energy convergence
   NCORE = 8             (square root of total cores)

 POTCAR:    PAW_PBE Ni 02Aug2007                  
 POTCAR:    PAW_PBE Nb_sv 25May2007               
 POTCAR:    PAW_PBE Fe 06Sep2000                  
 POTCAR:    PAW_PBE Sb 06Sep2000                  
 POTCAR:    PAW_PBE Ni 02Aug2007                  
   VRHFIN =Ni:                                                                                      
   LEXCH  = PE                                                                                      
   EATOM  =  1077.6739 eV,   79.2068 Ry                                                             
                                                                                                    
   TITEL  = PAW_PBE Ni 02Aug2007                                                                    
   LULTRA =        F    use ultrasoft PP ?                                                          
   IUNSCR =        1    unscreen: 0-lin 1-nonlin 2-no                                               
   RPACOR =    2.000    partial core radius                                                         
   POMASS =   58.690; ZVAL   =   10.000    mass and valenz                                          
   RCORE  =    2.300    outmost cutoff radius                                                       
   RWIGS  =    2.430; RWIGS  =    1.286    wigner-seitz radius (au A)                               
   ENMAX  =  269.532; ENMIN  =  202.149 eV                                                          
   RCLOC  =    1.201    cutoff for local pot                                                        
   LCOR   =        T    correct aug charges                                                         
   LPAW   =        T    paw PP                                                                      
   EAUG   =  544.565                                                                                
   DEXC   =    0.000                                                                                
   RMAX   =    2.357    core radius for proj-oper                                                   
   RAUG   =    1.300    factor for augmentation sphere                                              
   RDEP   =    2.390    radius for radial grids                                                     
   RDEPT  =    1.838    core radius for aug-charge                                                  
                                                                                                    
   Atomic configuration                                                                             
    9 entries                                                                                       
     n  l   j            E        occ.                                                              
     1  0  0.50     -8206.4253   2.0000                                                             
     2  0  0.50      -976.1748   2.0000                                                             
     2  1  1.50      -839.0571   6.0000                                                             
     3  0  0.50      -105.9991   2.0000                                                             
     3  1  1.50       -66.4603   6.0000                                                             
     3  2  2.50        -4.6458   9.0000                                                             
     4  0  0.50        -4.4926   1.0000                                                             
     4  1  1.50        -4.0817   0.0000                                                             
     4  3  2.50        -1.3606   0.0000                                                             
   Description                                                                                      
     l       E           TYP  RCUT    TYP  RCUT                                                     
     2     -4.6457903     23  2.300                                                                 
     2     -6.0063729     23  2.300                                                                 
     0     -4.4925590     23  2.300                                                                 
     0      5.0102601     23  2.300                                                                 
     1     -2.7211652     23  2.300                                                                 
     1     16.5183231     23  2.300                                                                 
  local pseudopotential read in
  partial core-charges read in
  partial kinetic energy density read in
  atomic valenz-charges read in
  non local Contribution for L=           2  read in
    real space projection operators read in
  non local Contribution for L=           2  read in
    real space projection operators read in
  non local Contribution for L=           0  read in
    real space projection operators read in
  non local Contribution for L=           0  read in
    real space projection operators read in
  non local Contribution for L=           1  read in
    real space projection operators read in
  non local Contribution for L=           1  read in
    real space projection operators read in
    PAW grid and wavefunctions read in
 
   number of l-projection  operators is LMAX  =           6
   number of lm-projection operators is LMMAX =          18
 
 POTCAR:    PAW_PBE Nb_sv 25May2007               
   VRHFIN =Nb: 4p5s4d                                                                               
   LEXCH  = PE                                                                                      
   EATOM  =  1555.1913 eV,  114.3033 Ry                                                             
                                                                                                    
   TITEL  = PAW_PBE Nb_sv 25May2007                                                                 
   LULTRA =        F    use ultrasoft PP ?                                                          
   IUNSCR =        1    unscreen: 0-lin 1-nonlin 2-no                                               
   RPACOR =    1.800    partial core radius                                                         
   POMASS =   92.910; ZVAL   =   13.000    mass and valenz                                          
   RCORE  =    2.400    outmost cutoff radius                                                       
   RWIGS  =    2.400; RWIGS  =    1.270    wigner-seitz radius (au A)                               
   ENMAX  =  293.235; ENMIN  =  219.927 eV                                                          
   ICORE  =        3    local potential                                                             
   LCOR   =        T    correct aug charges                                                         
   LPAW   =        T    paw PP                                                                      
   EAUG   =  455.659                                                                                
   DEXC   =    0.000                                                                                
   RMAX   =    2.456    core radius for proj-oper                                                   
   RAUG   =    1.300    factor for augmentation sphere                                              
   RDEP   =    2.451    radius for radial grids                                                     
   RDEPT  =    1.956    core radius for aug-charge                                                  
                                                                                                    
   Atomic configuration                                                                             
   11 entries                                                                                       
     n  l   j            E        occ.                                                              
     1  0  0.50    -18805.2457   2.0000                                                             
     2  0  0.50     -2630.2869   2.0000                                                             
     2  1  1.50     -2348.4046   6.0000                                                             
     3  0  0.50      -438.8757   2.0000                                                             
     3  1  1.50      -346.7588   6.0000                                                             
     3  2  2.50      -196.2560  10.0000                                                             
     4  0  0.50       -58.3859   2.0000                                                             
     5  0  0.50        -3.9816   1.0000                                                             
     4  1  1.50       -34.5141   6.0000                                                             
     4  2  2.50        -3.0408   4.0000                                                             
     4  3  2.50        -1.3606   0.0000                                                             
   Description                                                                                      
     l       E           TYP  RCUT    TYP  RCUT                                                     
     0    -58.3859094     23  2.200                                                                 
     0     -3.9816262     23  2.200                                                                 
     1    -34.5140738     23  2.200                                                                 
     1     13.6058260     23  2.200                                                                 
     2     -3.0408010     23  2.200                                                                 
     2     -0.1283038     23  2.200                                                                 
     3     -1.3605826     23  2.400                                                                 
  local pseudopotential read in
  partial core-charges read in
  partial kinetic energy density read in
  atomic valenz-charges read in
  non local Contribution for L=           0  read in
    real space projection operators read in
  non local Contribution for L=           0  read in
    real space projection operators read in
  non local Contribution for L=           1  read in
    real space projection operators read in
  non local Contribution for L=           1  read in
    real space projection operators read in
  non local Contribution for L=           2  read in
    real space projection operators read in
  non local Contribution for L=           2  read in
    real space projection operators read in
    PAW grid and wavefunctions read in
 
   number of l-projection  operators is LMAX  =           6
   number of lm-projection operators is LMMAX =          18
 
 POTCAR:    PAW_PBE Fe 06Sep2000                  
   VRHFIN =Fe:  d7 s1                                                                               
   LEXCH  = PE                                                                                      
   EATOM  =   594.3153 eV,   43.6809 Ry                                                             
                                                                                                    
   TITEL  = PAW_PBE Fe 06Sep2000                                                                    
   LULTRA =        F    use ultrasoft PP ?                                                          
   IUNSCR =        1    unscreen: 0-lin 1-nonlin 2-no                                               
   RPACOR =    2.000    partial core radius                                                         
   POMASS =   55.847; ZVAL   =    8.000    mass and valenz                                          
   RCORE  =    2.300    outmost cutoff radius                                                       
   RWIGS  =    2.460; RWIGS  =    1.302    wigner-seitz radius (au A)                               
   ENMAX  =  267.882; ENMIN  =  200.911 eV                                                          
   RCLOC  =    1.701    cutoff for local pot                                                        
   LCOR   =        T    correct aug charges                                                         
   LPAW   =        T    paw PP                                                                      
   EAUG   =  511.368                                                                                
   DEXC   =    0.000                                                                                
   RMAX   =    2.356    core radius for proj-oper                                                   
   RAUG   =    1.300    factor for augmentation sphere                                              
   RDEP   =    2.442    radius for radial grids                                                     
   RDEPT  =    1.890    core radius for aug-charge                                                  
                                                                                                    
   Atomic configuration                                                                             
    9 entries                                                                                       
     n  l   j            E        occ.                                                              
     1  0  0.50     -6993.8440   2.0000                                                             
     2  0  0.50      -814.6047   2.0000                                                             
     2  1  1.50      -693.3689   6.0000                                                             
     3  0  0.50       -89.4732   2.0000                                                             
     3  1  1.50       -55.6373   6.0000                                                             
     3  2  2.50        -3.8151   7.0000                                                             
     4  0  0.50        -4.2551   1.0000                                                             
     4  1  1.50        -3.4015   0.0000                                                             
     4  3  2.50        -1.3606   0.0000                                                             
   Description                                                                                      
     l       E           TYP  RCUT    TYP  RCUT                                                     
     2     -3.8151135     23  2.300                                                                 
     2     -5.1756961     23  2.300                                                                 
     0     -4.2550963     23  2.300                                                                 
     0      7.2035603     23  2.300                                                                 
     1     -2.7211652     23  2.300                                                                 
     1     18.4316424     23  2.300                                                                 
  local pseudopotential read in
  partial core-charges read in
  partial kinetic energy density read in
  atomic valenz-charges read in
  non local Contribution for L=           2  read in
    real space projection operators read in
  non local Contribution for L=           2  read in
    real space projection operators read in
  non local Contribution for L=           0  read in
    real space projection operators read in
  non local Contribution for L=           0  read in
    real space projection operators read in
  non local Contribution for L=           1  read in
    real space projection operators read in
  non local Contribution for L=           1  read in
    real space projection operators read in
    PAW grid and wavefunctions read in
 
   number of l-projection  operators is LMAX  =           6
   number of lm-projection operators is LMMAX =          18
 
 POTCAR:    PAW_PBE Sb 06Sep2000                  
   VRHFIN =Sb: s2p3                                                                                 
   LEXCH  = PE                                                                                      
   EATOM  =   149.9515 eV,   11.0211 Ry                                                             
                                                                                                    
   TITEL  = PAW_PBE Sb 06Sep2000                                                                    
   LULTRA =        F    use ultrasoft PP ?                                                          
   IUNSCR =        1    unscreen: 0-lin 1-nonlin 2-no                                               
   RPACOR =    2.200    partial core radius                                                         
   POMASS =  121.750; ZVAL   =    5.000    mass and valenz                                          
   RCORE  =    2.300    outmost cutoff radius                                                       
   RWIGS  =    2.980; RWIGS  =    1.577    wigner-seitz radius (au A)                               
   ENMAX  =  172.069; ENMIN  =  129.052 eV                                                          
   ICORE  =        3    local potential                                                             
   LCOR   =        T    correct aug charges                                                         
   LPAW   =        T    paw PP                                                                      
   EAUG   =  380.513                                                                                
   DEXC   =    0.000                                                                                
   RMAX   =    2.346    core radius for proj-oper                                                   
   RAUG   =    1.300    factor for augmentation sphere                                              
   RDEP   =    2.360    radius for radial grids                                                     
   RDEPT  =    2.192    core radius for aug-charge                                                  
                                                                                                    
   Atomic configuration                                                                             
   13 entries                                                                                       
     n  l   j            E        occ.                                                              
     1  0  0.50    -30298.2797   2.0000                                                             
     2  0  0.50     -4610.2252   2.0000                                                             
     2  1  1.50     -4138.3407   6.0000                                                             
     3  0  0.50      -903.8815   2.0000                                                             
     3  1  1.50      -750.1337   6.0000                                                             
     3  2  2.50      -515.7092  10.0000                                                             
     4  0  0.50      -148.8034   2.0000                                                             
     4  1  1.50      -101.7581   6.0000                                                             
     4  2  2.50       -33.5048  10.0000                                                             
     5  0  0.50       -12.8298   2.0000                                                             
     5  1  0.50        -4.8276   3.0000                                                             
     5  2  1.50        -4.0817   0.0000                                                             
     4  3  2.50        -4.0817   0.0000                                                             
   Description                                                                                      
     l       E           TYP  RCUT    TYP  RCUT                                                     
     0    -12.8297861     23  2.300                                                                 
     0     13.6058260     23  2.300                                                                 
     1     -4.8275512     23  2.300                                                                 
     1     -0.7245443     23  2.300                                                                 
     2     -4.0817478     23  2.300                                                                 
     3     -1.3605826     23  2.300                                                                 
  local pseudopotential read in
  partial core-charges read in
  partial kinetic energy density read in
  atomic valenz-charges read in
  non local Contribution for L=           0  read in
    real space projection operators read in
  non local Contribution for L=           0  read in
    real space projection operators read in
  non local Contribution for L=           1  read in
    real space projection operators read in
  non local Contribution for L=           1  read in
    real space projection operators read in
  non local Contribution for L=           2  read in
    real space projection operators read in
    PAW grid and wavefunctions read in
 
   number of l-projection  operators is LMAX  =           5
   number of lm-projection operators is LMMAX =          13
 
 -----------------------------------------------------------------------------
|                                                                             |
|               ----> ADVICE to this user running VASP <----                  |
|                                                                             |
|     You have a (more or less) 'large supercell' and for larger cells it     |
|     might be more efficient to use real-space projection operators.         |
|     Therefore, try LREAL= Auto in the INCAR file.                           |
|     Mind: For very accurate calculation, you might also keep the            |
|     reciprocal projection scheme (i.e. LREAL=.FALSE.).                      |
|                                                                             |
 -----------------------------------------------------------------------------

  PAW_PBE Ni 02Aug2007                  :
 energy of atom  1       EATOM=-1077.6739
 kinetic energy error for atom=    0.0030 (will be added to EATOM!!)
  PAW_PBE Nb_sv 25May2007               :
 energy of atom  2       EATOM=-1555.1913
 kinetic energy error for atom=    0.0069 (will be added to EATOM!!)
  PAW_PBE Fe 06Sep2000                  :
 energy of atom  3       EATOM= -594.3153
 kinetic energy error for atom=    0.0026 (will be added to EATOM!!)
  PAW_PBE Sb 06Sep2000                  :
 energy of atom  4       EATOM= -149.9515
 kinetic energy error for atom=    0.0005 (will be added to EATOM!!)
 
 
 POSCAR: Relaxed POSCAR
  positions in direct lattice
  velocities in cartesian coordinates
 exchange correlation table for  LEXCH =        8
   RHO(1)=    0.500       N(1)  =     2000
   RHO(2)=  100.500       N(2)  =     4000
 


--------------------------------------------------------------------------------------------------------


 ion  position               nearest neighbor table
   1  0.125  0.125  0.125-  66 2.62  82 2.62  90 2.62  74 2.62  18 2.64  26 2.64  10 2.64   2 2.64
                            50 2.98  54 2.98  34 2.98  35 2.98  42 2.98  44 2.98
   2  0.997  0.997  0.997-  65 2.54  35 2.60  54 2.60  44 2.60   1 2.64  92 2.95  83 2.95  70 2.95
                            66 3.04  90 3.04  82 3.04
   3  1.000  1.000  0.500-  45 2.58  55 2.58  34 2.58  64 2.59  82 2.96  83 2.97  71 2.98  93 2.98
                            91 2.98  67 2.98
   4  1.000  0.500  1.000-  37 2.58  56 2.58  42 2.58  63 2.59  90 2.96  92 2.97  85 2.98  72 2.98
                            84 2.98  68 2.98
   5  1.000  0.500  0.500-  57 2.57  62 2.57  36 2.58  43 2.58  85 2.97  93 2.97  73 2.98  69 2.98
                            91 2.98  84 2.98
   6  0.500  1.000  1.000-  39 2.58  48 2.58  50 2.58  61 2.59  66 2.96  70 2.97  87 2.98  96 2.98
                            94 2.98  86 2.98
   7  0.500  1.000  0.500-  49 2.57  60 2.57  51 2.58  38 2.58  71 2.97  87 2.97  97 2.98  95 2.98
                            86 2.98  67 2.98
   8  0.500  0.500  1.000-  41 2.57  59 2.57  52 2.58  46 2.58  72 2.97  96 2.97  89 2.98  88 2.98
                            94 2.98  68 2.98
   9  0.500  0.500  0.500-  58 2.56  47 2.58  53 2.58  40 2.58  73 2.97  89 2.97  97 2.97  95 2.98
                            88 2.98  69 2.98
  10  0.997  0.253  0.253-  62 2.54  42 2.60  34 2.60  54 2.60   1 2.64  84 2.95  78 2.95  91 2.95
                            74 3.04  90 3.04  82 3.04
  11  1.000  0.250  0.750-  43 2.58  55 2.58  35 2.58  63 2.59  90 2.96  91 2.97  79 2.98  85 2.98
                            83 2.98  75 2.98
  12  1.000  0.750  0.250-  36 2.58  56 2.58  44 2.58  64 2.59  82 2.96  84 2.97  93 2.98  80 2.98
                            92 2.98  76 2.98
  13  1.000  0.750  0.750-  57 2.57  65 2.57  45 2.58  37 2.58  85 2.97  93 2.97  81 2.98  77 2.98
                            92 2.98  83 2.98
  14  0.500  0.250  0.250-  38 2.58  46 2.58  50 2.58  58 2.59  74 2.96  78 2.97  95 2.98  88 2.98
                            94 2.98  86 2.98
  15  0.500  0.250  0.750-  47 2.57  59 2.57  51 2.58  39 2.58  79 2.97  95 2.97  89 2.98  87 2.98
                            94 2.98  75 2.98
  16  0.500  0.750  0.250-  40 2.57  60 2.57  48 2.58  52 2.58  80 2.97  88 2.97  97 2.98  96 2.98
                            86 2.98  76 2.98
  17  0.500  0.750  0.750-  61 2.56  49 2.58  41 2.58  53 2.58  81 2.97  89 2.97  97 2.97  87 2.98
                            96 2.98  77 2.98
  18  0.253  0.997  0.253-  60 2.54  44 2.60  50 2.60  34 2.60   1 2.64  76 2.95  67 2.95  86 2.95
                            66 3.04  82 3.04  74 3.04
  19  0.250  1.000  0.750-  51 2.58  45 2.58  35 2.58  61 2.59  66 2.96  67 2.97  87 2.98  77 2.98
                            83 2.98  75 2.98
  20  0.250  0.500  0.250-  52 2.58  36 2.58  42 2.58  58 2.59  74 2.96  76 2.97  69 2.98  88 2.98
                            68 2.98  84 2.98
  21  0.250  0.500  0.750-  53 2.57  59 2.57  37 2.58  43 2.58  69 2.97  77 2.97  89 2.98  85 2.98
                            75 2.98  68 2.98
  22  0.750  1.000  0.250-  38 2.58  48 2.58  54 2.58  64 2.59  82 2.96  86 2.97  71 2.98  80 2.98
                            78 2.98  70 2.98
  23  0.750  1.000  0.750-  49 2.57  65 2.57  55 2.58  39 2.58  71 2.97  87 2.97  81 2.98  79 2.98
                            83 2.98  70 2.98
  24  0.750  0.500  0.250-  40 2.57  62 2.57  56 2.58  46 2.58  80 2.97  88 2.97  73 2.98  72 2.98
                            84 2.98  78 2.98
  25  0.750  0.500  0.750-  63 2.56  57 2.58  41 2.58  47 2.58  73 2.97  81 2.97  89 2.97  79 2.98
                            85 2.98  72 2.98
  26  0.253  0.253  0.997-  59 2.54  42 2.60  50 2.60  35 2.60   1 2.64  68 2.95  75 2.95  94 2.95
                            66 3.04  90 3.04  74 3.04
  27  0.250  0.250  0.500-  43 2.58  51 2.58  34 2.58  58 2.59  74 2.96  75 2.97  95 2.98  69 2.98
                            91 2.98  67 2.98
  28  0.250  0.750  1.000-  52 2.58  37 2.58  44 2.58  61 2.59  66 2.96  68 2.97  77 2.98  96 2.98
                            76 2.98  92 2.98
  29  0.250  0.750  0.500-  53 2.57  60 2.57  45 2.58  36 2.58  69 2.97  77 2.97  97 2.98  93 2.98
                            76 2.98  67 2.98
  30  0.750  0.250  1.000-  39 2.58  46 2.58  54 2.58  63 2.59  90 2.96  94 2.97  79 2.98  72 2.98
                            78 2.98  70 2.98
  31  0.750  0.250  0.500-  47 2.57  62 2.57  55 2.58  38 2.58  79 2.97  95 2.97  73 2.98  71 2.98
                            91 2.98  78 2.98
  32  0.750  0.750  1.000-  41 2.57  65 2.57  56 2.58  48 2.58  72 2.97  96 2.97  81 2.98  80 2.98
                            92 2.98  70 2.98
  33  0.750  0.750  0.500-  64 2.56  57 2.58  49 2.58  40 2.58  73 2.97  81 2.97  97 2.97  71 2.98
                            93 2.98  80 2.98
  34  0.125  0.125  0.375-   3 2.58  27 2.58  67 2.58  91 2.58  74 2.60  82 2.60  18 2.60  10 2.60
                             1 2.98
  35  0.125  0.125  0.875-  11 2.58  19 2.58  75 2.58  83 2.58  66 2.60  90 2.60   2 2.60  26 2.60
                             1 2.98
  36  0.125  0.625  0.375-  76 2.57  84 2.57  12 2.58  20 2.58  69 2.58  93 2.58   5 2.58  29 2.58

  37  0.125  0.625  0.875-  68 2.57  92 2.57   4 2.58  28 2.58  77 2.58  85 2.58  21 2.58  13 2.58

  38  0.625  0.125  0.375-  78 2.57  86 2.57  14 2.58  22 2.58  71 2.58  95 2.58   7 2.58  31 2.58

  39  0.625  0.125  0.875-  70 2.57  94 2.57   6 2.58  30 2.58  79 2.58  87 2.58  23 2.58  15 2.58

  40  0.625  0.625  0.375-  16 2.57  24 2.57  80 2.58  88 2.58  73 2.58  97 2.58   9 2.58  33 2.58

  41  0.625  0.625  0.875-   8 2.57  32 2.57  72 2.58  96 2.58  81 2.58  89 2.58  25 2.58  17 2.58

  42  0.125  0.375  0.125-   4 2.58  20 2.58  68 2.58  84 2.58  74 2.60  90 2.60  10 2.60  26 2.60
                             1 2.98
  43  0.125  0.375  0.625-  75 2.57  91 2.57  11 2.58  27 2.58  85 2.58  69 2.58   5 2.58  21 2.58

  44  0.125  0.875  0.125-  12 2.58  28 2.58  76 2.58  92 2.58  82 2.60  66 2.60  18 2.60   2 2.60
                             1 2.98
  45  0.125  0.875  0.625-  67 2.57  83 2.57   3 2.58  19 2.58  77 2.58  93 2.58  13 2.58  29 2.58

  46  0.625  0.375  0.125-  78 2.57  94 2.57  14 2.58  30 2.58  88 2.58  72 2.58  24 2.58   8 2.58

  47  0.625  0.375  0.625-  15 2.57  31 2.57  79 2.58  95 2.58  89 2.58  73 2.58   9 2.58  25 2.58

  48  0.625  0.875  0.125-  70 2.57  86 2.57   6 2.58  22 2.58  80 2.58  96 2.58  16 2.58  32 2.58

  49  0.625  0.875  0.625-   7 2.57  23 2.57  71 2.58  87 2.58  81 2.58  97 2.58  17 2.58  33 2.58

  50  0.375  0.125  0.125-   6 2.58  14 2.58  86 2.58  94 2.58  74 2.60  66 2.60  18 2.60  26 2.60
                             1 2.98
  51  0.375  0.125  0.625-  75 2.57  67 2.57  19 2.58  27 2.58  87 2.58  95 2.58   7 2.58  15 2.58

  52  0.375  0.625  0.125-  76 2.57  68 2.57  20 2.58  28 2.58  88 2.58  96 2.58   8 2.58  16 2.58

  53  0.375  0.625  0.625-  21 2.57  29 2.57  69 2.58  77 2.58  89 2.58  97 2.58   9 2.58  17 2.58

  54  0.875  0.125  0.125-  22 2.58  30 2.58  78 2.58  70 2.58  82 2.60  90 2.60   2 2.60  10 2.60
                             1 2.98
  55  0.875  0.125  0.625-  91 2.57  83 2.57   3 2.58  11 2.58  79 2.58  71 2.58  23 2.58  31 2.58

  56  0.875  0.625  0.125-  92 2.57  84 2.57   4 2.58  12 2.58  80 2.58  72 2.58  24 2.58  32 2.58

  57  0.875  0.625  0.625-   5 2.57  13 2.57  93 2.58  85 2.58  81 2.58  73 2.58  25 2.58  33 2.58

  58  0.376  0.376  0.376-   9 2.56  74 2.56  88 2.57  69 2.57  95 2.57  14 2.59  20 2.59  27 2.59

  59  0.376  0.376  0.874-  26 2.54  89 2.56  15 2.57  21 2.57   8 2.57  68 2.59  94 2.59  75 2.59

  60  0.376  0.874  0.376-  18 2.54  97 2.56  29 2.57  16 2.57   7 2.57  86 2.59  67 2.59  76 2.59

  61  0.376  0.874  0.874-  17 2.56  66 2.56  87 2.57  96 2.57  77 2.57  28 2.59  19 2.59   6 2.59

  62  0.874  0.376  0.376-  10 2.54  73 2.56  31 2.57  24 2.57   5 2.57  84 2.59  78 2.59  91 2.59

  63  0.874  0.376  0.874-  25 2.56  90 2.56  79 2.57  85 2.57  72 2.57  30 2.59   4 2.59  11 2.59

  64  0.874  0.874  0.376-  33 2.56  82 2.56  80 2.57  71 2.57  93 2.57  22 2.59  12 2.59   3 2.59

  65  0.874  0.874  0.874-   2 2.54  81 2.56  23 2.57  32 2.57  13 2.57  70 2.59  83 2.59  92 2.59

  66  0.252  0.998  0.998-  61 2.56  44 2.60  35 2.60  50 2.60   1 2.62  28 2.96  19 2.96   6 2.96
                            26 3.04  18 3.04   2 3.04
  67  0.250  1.000  0.501-  45 2.57  51 2.57  34 2.58  60 2.59  18 2.95  19 2.97   7 2.98  29 2.98
                            27 2.98   3 2.98
  68  0.250  0.501  1.000-  37 2.57  52 2.57  42 2.58  59 2.59  26 2.95  28 2.97   8 2.98  21 2.98
                            20 2.98   4 2.98
  69  0.250  0.500  0.500-  58 2.57  53 2.58  36 2.58  43 2.58  21 2.97  29 2.97  20 2.98  27 2.98
                             5 2.98   9 2.98
  70  0.749  1.000  1.000-  48 2.57  39 2.57  54 2.58  65 2.59   2 2.95   6 2.97  23 2.98  32 2.98
                            30 2.98  22 2.98
  71  0.750  0.000  0.500-  64 2.57  49 2.58  38 2.58  55 2.58   7 2.97  23 2.97  22 2.98   3 2.98
                            31 2.98  33 2.98
  72  0.750  0.500  0.000-  63 2.57  41 2.58  46 2.58  56 2.58   8 2.97  32 2.97  30 2.98   4 2.98
                            24 2.98  25 2.98
  73  0.750  0.500  0.500-  62 2.56  47 2.58  57 2.58  40 2.58  25 2.97  33 2.97   9 2.97  31 2.98
                            24 2.98   5 2.98
  74  0.252  0.252  0.252-  58 2.56  42 2.60  50 2.60  34 2.60   1 2.62  20 2.96  14 2.96  27 2.96
                            26 3.04  18 3.04  10 3.04
  75  0.250  0.250  0.749-  43 2.57  51 2.57  35 2.58  59 2.59  26 2.95  27 2.97  15 2.98  21 2.98
                            19 2.98  11 2.98
  76  0.250  0.749  0.250-  36 2.57  52 2.57  44 2.58  60 2.59  18 2.95  20 2.97  16 2.98  29 2.98
                            28 2.98  12 2.98
  77  0.250  0.750  0.750-  61 2.57  53 2.58  37 2.58  45 2.58  21 2.97  29 2.97  28 2.98  19 2.98
                            13 2.98  17 2.98
  78  0.749  0.250  0.250-  38 2.57  46 2.57  54 2.58  62 2.59  10 2.95  14 2.97  24 2.98  31 2.98
                            30 2.98  22 2.98
  79  0.750  0.250  0.750-  63 2.57  47 2.58  55 2.58  39 2.58  15 2.97  31 2.97  30 2.98  11 2.98
                            23 2.98  25 2.98
  80  0.750  0.750  0.250-  64 2.57  40 2.58  56 2.58  48 2.58  16 2.97  24 2.97  22 2.98  12 2.98
                            32 2.98  33 2.98
  81  0.750  0.750  0.750-  65 2.56  49 2.58  57 2.58  41 2.58  25 2.97  33 2.97  17 2.97  23 2.98
                            32 2.98  13 2.98
  82  0.998  0.998  0.252-  64 2.56  54 2.60  44 2.60  34 2.60   1 2.62  12 2.96   3 2.96  22 2.96
                            18 3.04  10 3.04   2 3.04
  83  1.000  1.000  0.749-  45 2.57  55 2.57  35 2.58  65 2.59   2 2.95   3 2.97  13 2.98  23 2.98
                            19 2.98  11 2.98
  84  1.000  0.501  0.250-  56 2.57  36 2.57  42 2.58  62 2.59  10 2.95  12 2.97   5 2.98  24 2.98
                             4 2.98  20 2.98
  85  0.000  0.500  0.750-  63 2.57  57 2.58  43 2.58  37 2.58   5 2.97  13 2.97   4 2.98  11 2.98
                            21 2.98  25 2.98
  86  0.501  1.000  0.250-  48 2.57  38 2.57  50 2.58  60 2.59  18 2.95  22 2.97   7 2.98  16 2.98
                            14 2.98   6 2.98
  87  0.500  0.000  0.750-  61 2.57  49 2.58  51 2.58  39 2.58   7 2.97  23 2.97  19 2.98   6 2.98
                            15 2.98  17 2.98
  88  0.500  0.500  0.250-  58 2.57  40 2.58  52 2.58  46 2.58  16 2.97  24 2.97  20 2.98  14 2.98
                             8 2.98   9 2.98
  89  0.500  0.500  0.750-  59 2.56  53 2.58  47 2.58  41 2.58  17 2.97  25 2.97   9 2.97  15 2.98
                            21 2.98   8 2.98
  90  0.998  0.252  0.998-  63 2.56  54 2.60  35 2.60  42 2.60   1 2.62   4 2.96  11 2.96  30 2.96
                            26 3.04  10 3.04   2 3.04
  91  1.000  0.250  0.501-  55 2.57  43 2.57  34 2.58  62 2.59  10 2.95  11 2.97   5 2.98  31 2.98
                            27 2.98   3 2.98
  92  1.000  0.749  1.000-  37 2.57  56 2.57  44 2.58  65 2.59   2 2.95   4 2.97  13 2.98  32 2.98
                            12 2.98  28 2.98
  93  0.000  0.750  0.500-  64 2.57  57 2.58  36 2.58  45 2.58   5 2.97  13 2.97  12 2.98   3 2.98
                            29 2.98  33 2.98
  94  0.501  0.250  1.000-  39 2.57  46 2.57  50 2.58  59 2.59  26 2.95  30 2.97   8 2.98  15 2.98
                            14 2.98   6 2.98
  95  0.500  0.250  0.500-  58 2.57  47 2.58  51 2.58  38 2.58  15 2.97  31 2.97  27 2.98  14 2.98
                             7 2.98   9 2.98
  96  0.500  0.750  0.000-  61 2.57  41 2.58  52 2.58  48 2.58   8 2.97  32 2.97  28 2.98   6 2.98
                            16 2.98  17 2.98
  97  0.500  0.750  0.500-  60 2.56  53 2.58  40 2.58  49 2.58  17 2.97  33 2.97   9 2.97   7 2.98
                            29 2.98  16 2.98
 

IMPORTANT INFORMATION: All symmetrisations will be switched off!
NOSYMM: (Re-)initialisation of all symmetry stuff for point group C_1.


----------------------------------------------------------------------------------------

                                     Primitive cell                                     

  volume of cell :    1689.3517

  direct lattice vectors                    reciprocal lattice vectors
    11.909860967  0.000000000  0.000000000     0.083964036 -0.000000000 -0.000000000
     0.000000000 11.909860967  0.000000000     0.000000000  0.083964036 -0.000000000
     0.000000000  0.000000000 11.909860967     0.000000000  0.000000000  0.083964036

  length of vectors
    11.909860967 11.909860967 11.909860967     0.083964036  0.083964036  0.083964036

  position of ions in fractional coordinates (direct lattice)
     0.125000000  0.125000000  0.125000000
     0.997015554  0.997015554  0.997015554
     0.999877047  0.999877047  0.500271483
     0.999877047  0.500271483  0.999877047
     0.999724373  0.500289800  0.500289800
     0.500271483  0.999877047  0.999877047
     0.500289800  0.999724373  0.500289800
     0.500289800  0.500289800  0.999724373
     0.500012350  0.500012350  0.500012350
     0.997015554  0.252984446  0.252984446
     0.999877047  0.250122953  0.749728517
     0.999877047  0.749728517  0.250122953
     0.999724373  0.749710200  0.749710200
     0.500271483  0.250122953  0.250122953
     0.500289800  0.250275627  0.749710200
     0.500289800  0.749710200  0.250275627
     0.500012350  0.749987650  0.749987650
     0.252984446  0.997015554  0.252984446
     0.250122953  0.999877047  0.749728517
     0.250122953  0.500271483  0.250122953
     0.250275627  0.500289800  0.749710200
     0.749728517  0.999877047  0.250122953
     0.749710200  0.999724373  0.749710200
     0.749710200  0.500289800  0.250275627
     0.749987650  0.500012350  0.749987650
     0.252984446  0.252984446  0.997015554
     0.250122953  0.250122953  0.500271483
     0.250122953  0.749728517  0.999877047
     0.250275627  0.749710200  0.500289800
     0.749728517  0.250122953  0.999877047
     0.749710200  0.250275627  0.500289800
     0.749710200  0.749710200  0.999724373
     0.749987650  0.749987650  0.500012350
     0.125000000  0.125000000  0.375456412
     0.125000000  0.125000000  0.874543588
     0.125000000  0.625000000  0.374886074
     0.125000000  0.625000000  0.875113926
     0.625000000  0.125000000  0.374886074
     0.625000000  0.125000000  0.875113926
     0.625000000  0.625000000  0.374651574
     0.625000000  0.625000000  0.875348426
     0.125000000  0.375456412  0.125000000
     0.125000000  0.374886074  0.625000000
     0.125000000  0.874543588  0.125000000
     0.125000000  0.875113926  0.625000000
     0.625000000  0.374886074  0.125000000
     0.625000000  0.374651574  0.625000000
     0.625000000  0.875113926  0.125000000
     0.625000000  0.875348426  0.625000000
     0.375456412  0.125000000  0.125000000
     0.374886074  0.125000000  0.625000000
     0.374886074  0.625000000  0.125000000
     0.374651574  0.625000000  0.625000000
     0.874543588  0.125000000  0.125000000
     0.875113926  0.125000000  0.625000000
     0.875113926  0.625000000  0.125000000
     0.875348426  0.625000000  0.625000000
     0.376105047  0.376105047  0.376105047
     0.376209230  0.376209230  0.873790770
     0.376209230  0.873790770  0.376209230
     0.376105047  0.873894953  0.873894953
     0.873790770  0.376209230  0.376209230
     0.873894953  0.376105047  0.873894953
     0.873894953  0.873894953  0.376105047
     0.873790770  0.873790770  0.873790770
     0.252073161  0.997926839  0.997926839
     0.250102813  0.999897187  0.500554165
     0.250102813  0.500554165  0.999897187
     0.249854151  0.500075888  0.500075888
     0.749445835  0.999897187  0.999897187
     0.749924112  0.000145849  0.500075888
     0.749924112  0.500075888  0.000145849
     0.749622833  0.500377167  0.500377167
     0.252073161  0.252073161  0.252073161
     0.250102813  0.250102813  0.749445835
     0.250102813  0.749445835  0.250102813
     0.249854151  0.749924112  0.749924112
     0.749445835  0.250102813  0.250102813
     0.749924112  0.249854151  0.749924112
     0.749924112  0.749924112  0.249854151
     0.749622833  0.749622833  0.749622833
     0.997926839  0.997926839  0.252073161
     0.999897187  0.999897187  0.749445835
     0.999897187  0.500554165  0.250102813
     0.000145849  0.500075888  0.749924112
     0.500554165  0.999897187  0.250102813
     0.500075888  0.000145849  0.749924112
     0.500075888  0.500075888  0.249854151
     0.500377167  0.500377167  0.749622833
     0.997926839  0.252073161  0.997926839
     0.999897187  0.250102813  0.500554165
     0.999897187  0.749445835  0.999897187
     0.000145849  0.749924112  0.500075888
     0.500554165  0.250102813  0.999897187
     0.500075888  0.249854151  0.500075888
     0.500075888  0.749924112  0.000145849
     0.500377167  0.749622833  0.500377167

  ion indices of the primitive-cell ions
   primitive index   ion index
                 1           1
                 2           2
                 3           3
                 4           4
                 5           5
                 6           6
                 7           7
                 8           8
                 9           9
                10          10
                11          11
                12          12
                13          13
                14          14
                15          15
                16          16
                17          17
                18          18
                19          19
                20          20
                21          21
                22          22
                23          23
                24          24
                25          25
                26          26
                27          27
                28          28
                29          29
                30          30
                31          31
                32          32
                33          33
                34          34
                35          35
                36          36
                37          37
                38          38
                39          39
                40          40
                41          41
                42          42
                43          43
                44          44
                45          45
                46          46
                47          47
                48          48
                49          49
                50          50
                51          51
                52          52
                53          53
                54          54
                55          55
                56          56
                57          57
                58          58
                59          59
                60          60
                61          61
                62          62
                63          63
                64          64
                65          65
                66          66
                67          67
                68          68
                69          69
                70          70
                71          71
                72          72
                73          73
                74          74
                75          75
                76          76
                77          77
                78          78
                79          79
                80          80
                81          81
                82          82
                83          83
                84          84
                85          85
                86          86
                87          87
                88          88
                89          89
                90          90
                91          91
                92          92
                93          93
                94          94
                95          95
                96          96
                97          97

----------------------------------------------------------------------------------------

 
 
 KPOINTS: K-Spacing Value to Generate K-Mesh: 0.02

Automatic generation of k-mesh.
 Grid dimensions read from file:
 generate k-points for:    4    4    4

 Generating k-lattice:

  Cartesian coordinates                     Fractional coordinates (reciprocal lattice)
     0.020991009 -0.000000000 -0.000000000     0.250000000 -0.000000000  0.000000000
     0.000000000  0.020991009 -0.000000000     0.000000000  0.250000000 -0.000000000
     0.000000000  0.000000000  0.020991009     0.000000000  0.000000000  0.250000000

  Length of vectors
     0.020991009  0.020991009  0.020991009

  Shift w.r.t. Gamma in fractional coordinates (k-lattice)
     0.500000000  0.500000000  0.500000000

 
 Subroutine IBZKPT returns following result:
 ===========================================
 
 Found     32 irreducible k-points:
 
 Following reciprocal coordinates:
            Coordinates               Weight
  0.125000  0.125000  0.125000      2.000000
 -0.125000  0.125000  0.125000      2.000000
 -0.125000 -0.125000  0.125000      2.000000
  0.125000 -0.125000  0.125000      2.000000
  0.375000  0.125000  0.125000      2.000000
  0.125000  0.375000  0.125000      2.000000
  0.125000  0.125000  0.375000      2.000000
 -0.125000  0.375000  0.125000      2.000000
 -0.375000  0.125000  0.125000      2.000000
 -0.125000  0.125000  0.375000      2.000000
 -0.375000 -0.125000  0.125000      2.000000
 -0.125000 -0.375000  0.125000      2.000000
 -0.125000 -0.125000  0.375000      2.000000
  0.125000 -0.375000  0.125000      2.000000
  0.375000 -0.125000  0.125000      2.000000
  0.125000 -0.125000  0.375000      2.000000
  0.375000  0.375000  0.125000      2.000000
  0.125000  0.375000  0.375000      2.000000
  0.375000  0.125000  0.375000      2.000000
 -0.375000  0.375000  0.125000      2.000000
 -0.375000  0.125000  0.375000      2.000000
 -0.125000  0.375000  0.375000      2.000000
 -0.375000 -0.375000  0.125000      2.000000
 -0.125000 -0.375000  0.375000      2.000000
 -0.375000 -0.125000  0.375000      2.000000
  0.375000 -0.375000  0.125000      2.000000
  0.375000 -0.125000  0.375000      2.000000
  0.125000 -0.375000  0.375000      2.000000
  0.375000  0.375000  0.375000      2.000000
 -0.375000  0.375000  0.375000      2.000000
 -0.375000 -0.375000  0.375000      2.000000
  0.375000 -0.375000  0.375000      2.000000
 
 Following cartesian coordinates:
            Coordinates               Weight
  0.010496  0.010496  0.010496      2.000000
 -0.010496  0.010496  0.010496      2.000000
 -0.010496 -0.010496  0.010496      2.000000
  0.010496 -0.010496  0.010496      2.000000
  0.031487  0.010496  0.010496      2.000000
  0.010496  0.031487  0.010496      2.000000
  0.010496  0.010496  0.031487      2.000000
 -0.010496  0.031487  0.010496      2.000000
 -0.031487  0.010496  0.010496      2.000000
 -0.010496  0.010496  0.031487      2.000000
 -0.031487 -0.010496  0.010496      2.000000
 -0.010496 -0.031487  0.010496      2.000000
 -0.010496 -0.010496  0.031487      2.000000
  0.010496 -0.031487  0.010496      2.000000
  0.031487 -0.010496  0.010496      2.000000
  0.010496 -0.010496  0.031487      2.000000
  0.031487  0.031487  0.010496      2.000000
  0.010496  0.031487  0.031487      2.000000
  0.031487  0.010496  0.031487      2.000000
 -0.031487  0.031487  0.010496      2.000000
 -0.031487  0.010496  0.031487      2.000000
 -0.010496  0.031487  0.031487      2.000000
 -0.031487 -0.031487  0.010496      2.000000
 -0.010496 -0.031487  0.031487      2.000000
 -0.031487 -0.010496  0.031487      2.000000
  0.031487 -0.031487  0.010496      2.000000
  0.031487 -0.010496  0.031487      2.000000
  0.010496 -0.031487  0.031487      2.000000
  0.031487  0.031487  0.031487      2.000000
 -0.031487  0.031487  0.031487      2.000000
 -0.031487 -0.031487  0.031487      2.000000
  0.031487 -0.031487  0.031487      2.000000
 


--------------------------------------------------------------------------------------------------------




 Dimension of arrays:
   k-points           NKPTS =     32   k-points in BZ     NKDIM =     32   number of bands    NBANDS=    512
   number of dos      NEDOS =    301   number of ions     NIONS =     97
   non local maximal  LDIM  =      6   non local SUM 2l+1 LMDIM =     18
   total plane-waves  NPLWV = 729000
   max r-space proj   IRMAX =      1   max aug-charges    IRDMAX=  24145
   dimension x,y,z NGX =    90 NGY =   90 NGZ =   90
   dimension x,y,z NGXF=   180 NGYF=  180 NGZF=  180
   support grid    NGXF=   180 NGYF=  180 NGZF=  180
   ions per type =               1  32  32  32
   NGX,Y,Z   is equivalent  to a cutoff of  12.56, 12.56, 12.56 a.u.
   NGXF,Y,Z  is equivalent  to a cutoff of  25.13, 25.13, 25.13 a.u.

 SYSTEM =  unknown system                          
 POSCAR =  Relaxed POSCAR                          

 Startparameter for this run:
   NWRITE =      2    write-flag & timer
   PREC   = accura    normal or accurate (medium, high low for compatibility)
   ISTART =      0    job   : 0-new  1-cont  2-samecut
   ICHARG =      2    charge: 1-file 2-atom 10-const
   ISPIN  =      1    spin polarized calculation?
   LNONCOLLINEAR =      F non collinear calculations
   LSORBIT =      F    spin-orbit coupling
   INIWAV =      1    electr: 0-lowe 1-rand  2-diag
   LASPH  =      F    aspherical Exc in radial PAW
 Electronic Relaxation 1
   ENCUT  =  500.0 eV  36.75 Ry    6.06 a.u.  21.71 21.71 21.71*2*pi/ulx,y,z
   ENINI  =  500.0     initial cutoff
   ENAUG  =  544.6 eV  augmentation charge cutoff
   NELM   =     60;   NELMIN=  2; NELMDL= -5     # of ELM steps 
   EDIFF  = 0.1E-05   stopping-criterion for ELM
   LREAL  =      F    real-space projection
   NLSPLINE    = F    spline interpolate recip. space projectors
   LCOMPAT=      F    compatible to vasp.4.4
   GGA_COMPAT  = T    GGA compatible to vasp.4.4-vasp.4.6
   LMAXPAW     = -100 max onsite density
   LMAXMIX     =    2 max onsite mixed and CHGCAR
   VOSKOWN=      0    Vosko Wilk Nusair interpolation
   ROPT   =    0.00000   0.00000   0.00000   0.00000
 Ionic relaxation
   EDIFFG = 0.1E-04   stopping-criterion for IOM
   NSW    =      0    number of steps for IOM
   NBLOCK =      1;   KBLOCK =      1    inner block; outer block 
   IBRION =     -1    ionic relax: 0-MD 1-quasi-New 2-CG
   NFREE  =      0    steps in history (QN), initial steepest desc. (CG)
   ISIF   =      2    stress and relaxation
   IWAVPR =     10    prediction:  0-non 1-charg 2-wave 3-comb
   ISYM   =      0    0-nonsym 1-usesym 2-fastsym
   LCORR  =      T    Harris-Foulkes like correction to forces

   POTIM  = 0.5000    time-step for ionic-motion
   TEIN   =    0.0    initial temperature
   TEBEG  =    0.0;   TEEND  =   0.0 temperature during run
   SMASS  =  -3.00    Nose mass-parameter (am)
   estimated Nose-frequenzy (Omega)   =  0.10E-29 period in steps = 0.13E+47 mass=  -0.324E-26a.u.
   SCALEE = 1.0000    scale energy and forces
   NPACO  =    256;   APACO  = 10.0  distance and # of slots for P.C.
   PSTRESS=    0.0 pullay stress

  Mass of Ions in am
   POMASS =  58.69 92.91 55.85121.75
  Ionic Valenz
   ZVAL   =  10.00 13.00  8.00  5.00
  Atomic Wigner-Seitz radii
   RWIGS  =  -1.00 -1.00 -1.00 -1.00
  virtual crystal weights 
   VCA    =   1.00  1.00  1.00  1.00
   NELECT =     842.0000    total number of electrons
   NUPDOWN=      -1.0000    fix difference up-down

 DOS related values:
   EMIN   =  10.00;   EMAX   =-10.00  energy-range for DOS
   EFERMI =   0.00
   ISMEAR =     0;   SIGMA  =   0.05  broadening in eV -4-tet -1-fermi 0-gaus

 Electronic relaxation 2 (details)
   IALGO  =     38    algorithm
   LDIAG  =      T    sub-space diagonalisation (order eigenvalues)
   LSUBROT=      F    optimize rotation matrix (better conditioning)
   TURBO    =      0    0=normal 1=particle mesh
   IRESTART =      0    0=no restart 2=restart with 2 vectors
   NREBOOT  =      0    no. of reboots
   NMIN     =      0    reboot dimension
   EREF     =   0.00    reference energy to select bands
   IMIX   =      4    mixing-type and parameters
     AMIX     =   0.40;   BMIX     =  1.00
     AMIX_MAG =   1.60;   BMIX_MAG =  1.00
     AMIN     =   0.10
     WC   =   100.;   INIMIX=   1;  MIXPRE=   1;  MAXMIX= -45

 Intra band minimization:
   WEIMIN = 0.0000     energy-eigenvalue tresh-hold
   EBREAK =  0.49E-09  absolut break condition
   DEPER  =   0.30     relativ break condition  

   TIME   =   0.40     timestep for ELM

  volume/ion in A,a.u.               =      17.42       117.53
  Fermi-wavevector in a.u.,A,eV,Ry     =   1.297992  2.452850 22.922884  1.684784
  Thomas-Fermi vector in A             =   2.429349
 
 Write flags
   LWAVE        =      F    write WAVECAR
   LDOWNSAMPLE  =      F    k-point downsampling of WAVECAR
   LCHARG       =      F    write CHGCAR
   LVTOT        =      F    write LOCPOT, total local potential
   LVHAR        =      F    write LOCPOT, Hartree potential only
   LELF         =      F    write electronic localiz. function (ELF)
   LORBIT       =      0    0 simple, 1 ext, 2 COOP (PROOUT), +10 PAW based schemes


 Dipole corrections
   LMONO  =      F    monopole corrections only (constant potential shift)
   LDIPOL =      F    correct potential (dipole corrections)
   IDIPOL =      0    1-x, 2-y, 3-z, 4-all directions 
   EPSILON=  1.0000000 bulk dielectric constant

 Exchange correlation treatment:
   GGA     =    --    GGA type
   LEXCH   =     8    internal setting for exchange type
   LIBXC   =     F    Libxc                    
   VOSKOWN =     0    Vosko Wilk Nusair interpolation
   LHFCALC =     F    Hartree Fock is set to
   LHFONE  =     F    Hartree Fock one center treatment
   AEXX    =    0.0000 exact exchange contribution

 Linear response parameters
   LEPSILON=     F    determine dielectric tensor
   LRPA    =     F    only Hartree local field effects (RPA)
   LNABLA  =     F    use nabla operator in PAW spheres
   LVEL    =     F    velocity operator in full k-point grid
   CSHIFT  =0.1000    complex shift for real part using Kramers Kronig
   OMEGAMAX=  -1.0    maximum frequency
   DEG_THRESHOLD= 0.2000000E-02 threshold for treating states as degnerate
   RTIME   =   -0.100 relaxation time in fs
  (WPLASMAI=    0.000 imaginary part of plasma frequency in eV, 0.658/RTIME)
   DFIELD  = 0.0000000 0.0000000 0.0000000 field for delta impulse in time
 
  Optional k-point grid parameters
   LKPOINTS_OPT  =     F    use optional k-point grid
   KPOINTS_OPT_MODE=     1    mode for optional k-point grid
 
 Orbital magnetization related:
   ORBITALMAG=     F  switch on orbital magnetization
   LCHIMAG   =     F  perturbation theory with respect to B field
   DQ        =  0.001000  dq finite difference perturbation B field
   LLRAUG    =     F  two centre corrections for induced B field



--------------------------------------------------------------------------------------------------------


 Static calculation
 charge density and potential will be updated during run
 non-spin polarized calculation
 Variant of blocked Davidson
 Davidson routine will perform the subspace rotation
 perform sub-space diagonalisation
    after iterative eigenvector-optimisation
 modified Broyden-mixing scheme, WC =      100.0
 initial mixing is a Kerker type mixing with AMIX =  0.4000 and BMIX =      1.0000
 Hartree-type preconditioning will be used
 using additional bands           91
 reciprocal scheme for non local part
 use partial core corrections
 calculate Harris-corrections to forces 
   (improved forces if not selfconsistent)
 use gradient corrections 
 use of overlap-Matrix (Vanderbilt PP)
 Gauss-broadening in eV      SIGMA  =   0.05


--------------------------------------------------------------------------------------------------------


  energy-cutoff  :      500.00
  volume of cell :     1689.35
      direct lattice vectors                 reciprocal lattice vectors
    11.909860967  0.000000000  0.000000000     0.083964036 -0.000000000 -0.000000000
     0.000000000 11.909860967  0.000000000     0.000000000  0.083964036 -0.000000000
     0.000000000  0.000000000 11.909860967     0.000000000  0.000000000  0.083964036

  length of vectors
    11.909860967 11.909860967 11.909860967     0.083964036  0.083964036  0.083964036


 
 k-points in units of 2pi/SCALE and weight: K-Spacing Value to Generate K-Mesh: 0.02
   0.01049550  0.01049550  0.01049550       0.031
  -0.01049550  0.01049550  0.01049550       0.031
  -0.01049550 -0.01049550  0.01049550       0.031
   0.01049550 -0.01049550  0.01049550       0.031
   0.03148651  0.01049550  0.01049550       0.031
   0.01049550  0.03148651  0.01049550       0.031
   0.01049550  0.01049550  0.03148651       0.031
  -0.01049550  0.03148651  0.01049550       0.031
  -0.03148651  0.01049550  0.01049550       0.031
  -0.01049550  0.01049550  0.03148651       0.031
  -0.03148651 -0.01049550  0.01049550       0.031
  -0.01049550 -0.03148651  0.01049550       0.031
  -0.01049550 -0.01049550  0.03148651       0.031
   0.01049550 -0.03148651  0.01049550       0.031
   0.03148651 -0.01049550  0.01049550       0.031
   0.01049550 -0.01049550  0.03148651       0.031
   0.03148651  0.03148651  0.01049550       0.031
   0.01049550  0.03148651  0.03148651       0.031
   0.03148651  0.01049550  0.03148651       0.031
  -0.03148651  0.03148651  0.01049550       0.031
  -0.03148651  0.01049550  0.03148651       0.031
  -0.01049550  0.03148651  0.03148651       0.031
  -0.03148651 -0.03148651  0.01049550       0.031
  -0.01049550 -0.03148651  0.03148651       0.031
  -0.03148651 -0.01049550  0.03148651       0.031
   0.03148651 -0.03148651  0.01049550       0.031
   0.03148651 -0.01049550  0.03148651       0.031
   0.01049550 -0.03148651  0.03148651       0.031
   0.03148651  0.03148651  0.03148651       0.031
  -0.03148651  0.03148651  0.03148651       0.031
  -0.03148651 -0.03148651  0.03148651       0.031
   0.03148651 -0.03148651  0.03148651       0.031
 
 k-points in reciprocal lattice and weights: K-Spacing Value to Generate K-Mesh: 0.02
   0.12500000  0.12500000  0.12500000       0.031
  -0.12500000  0.12500000  0.12500000       0.031
  -0.12500000 -0.12500000  0.12500000       0.031
   0.12500000 -0.12500000  0.12500000       0.031
   0.37500000  0.12500000  0.12500000       0.031
   0.12500000  0.37500000  0.12500000       0.031
   0.12500000  0.12500000  0.37500000       0.031
  -0.12500000  0.37500000  0.12500000       0.031
  -0.37500000  0.12500000  0.12500000       0.031
  -0.12500000  0.12500000  0.37500000       0.031
  -0.37500000 -0.12500000  0.12500000       0.031
  -0.12500000 -0.37500000  0.12500000       0.031
  -0.12500000 -0.12500000  0.37500000       0.031
   0.12500000 -0.37500000  0.12500000       0.031
   0.37500000 -0.12500000  0.12500000       0.031
   0.12500000 -0.12500000  0.37500000       0.031
   0.37500000  0.37500000  0.12500000       0.031
   0.12500000  0.37500000  0.37500000       0.031
   0.37500000  0.12500000  0.37500000       0.031
  -0.37500000  0.37500000  0.12500000       0.031
  -0.37500000  0.12500000  0.37500000       0.031
  -0.12500000  0.37500000  0.37500000       0.031
  -0.37500000 -0.37500000  0.12500000       0.031
  -0.12500000 -0.37500000  0.37500000       0.031
  -0.37500000 -0.12500000  0.37500000       0.031
   0.37500000 -0.37500000  0.12500000       0.031
   0.37500000 -0.12500000  0.37500000       0.031
   0.12500000 -0.37500000  0.37500000       0.031
   0.37500000  0.37500000  0.37500000       0.031
  -0.37500000  0.37500000  0.37500000       0.031
  -0.37500000 -0.37500000  0.37500000       0.031
   0.37500000 -0.37500000  0.37500000       0.031
 
 position of ions in fractional coordinates (direct lattice) 
   0.12500000  0.12500000  0.12500000
   0.99701555  0.99701555  0.99701555
   0.99987705  0.99987705  0.50027148
   0.99987705  0.50027148  0.99987705
   0.99972437  0.50028980  0.50028980
   0.50027148  0.99987705  0.99987705
   0.50028980  0.99972437  0.50028980
   0.50028980  0.50028980  0.99972437
   0.50001235  0.50001235  0.50001235
   0.99701555  0.25298445  0.25298445
   0.99987705  0.25012295  0.74972852
   0.99987705  0.74972852  0.25012295
   0.99972437  0.74971020  0.74971020
   0.50027148  0.25012295  0.25012295
   0.50028980  0.25027563  0.74971020
   0.50028980  0.74971020  0.25027563
   0.50001235  0.74998765  0.74998765
   0.25298445  0.99701555  0.25298445
   0.25012295  0.99987705  0.74972852
   0.25012295  0.50027148  0.25012295
   0.25027563  0.50028980  0.74971020
   0.74972852  0.99987705  0.25012295
   0.74971020  0.99972437  0.74971020
   0.74971020  0.50028980  0.25027563
   0.74998765  0.50001235  0.74998765
   0.25298445  0.25298445  0.99701555
   0.25012295  0.25012295  0.50027148
   0.25012295  0.74972852  0.99987705
   0.25027563  0.74971020  0.50028980
   0.74972852  0.25012295  0.99987705
   0.74971020  0.25027563  0.50028980
   0.74971020  0.74971020  0.99972437
   0.74998765  0.74998765  0.50001235
   0.12500000  0.12500000  0.37545641
   0.12500000  0.12500000  0.87454359
   0.12500000  0.62500000  0.37488607
   0.12500000  0.62500000  0.87511393
   0.62500000  0.12500000  0.37488607
   0.62500000  0.12500000  0.87511393
   0.62500000  0.62500000  0.37465157
   0.62500000  0.62500000  0.87534843
   0.12500000  0.37545641  0.12500000
   0.12500000  0.37488607  0.62500000
   0.12500000  0.87454359  0.12500000
   0.12500000  0.87511393  0.62500000
   0.62500000  0.37488607  0.12500000
   0.62500000  0.37465157  0.62500000
   0.62500000  0.87511393  0.12500000
   0.62500000  0.87534843  0.62500000
   0.37545641  0.12500000  0.12500000
   0.37488607  0.12500000  0.62500000
   0.37488607  0.62500000  0.12500000
   0.37465157  0.62500000  0.62500000
   0.87454359  0.12500000  0.12500000
   0.87511393  0.12500000  0.62500000
   0.87511393  0.62500000  0.12500000
   0.87534843  0.62500000  0.62500000
   0.37610505  0.37610505  0.37610505
   0.37620923  0.37620923  0.87379077
   0.37620923  0.87379077  0.37620923
   0.37610505  0.87389495  0.87389495
   0.87379077  0.37620923  0.37620923
   0.87389495  0.37610505  0.87389495
   0.87389495  0.87389495  0.37610505
   0.87379077  0.87379077  0.87379077
   0.25207316  0.99792684  0.99792684
   0.25010281  0.99989719  0.50055417
   0.25010281  0.50055417  0.99989719
   0.24985415  0.50007589  0.50007589
   0.74944583  0.99989719  0.99989719
   0.74992411  0.00014585  0.50007589
   0.74992411  0.50007589  0.00014585
   0.74962283  0.50037717  0.50037717
   0.25207316  0.25207316  0.25207316
   0.25010281  0.25010281  0.74944583
   0.25010281  0.74944583  0.25010281
   0.24985415  0.74992411  0.74992411
   0.74944583  0.25010281  0.25010281
   0.74992411  0.24985415  0.74992411
   0.74992411  0.74992411  0.24985415
   0.74962283  0.74962283  0.74962283
   0.99792684  0.99792684  0.25207316
   0.99989719  0.99989719  0.74944583
   0.99989719  0.50055417  0.25010281
   0.00014585  0.50007589  0.74992411
   0.50055417  0.99989719  0.25010281
   0.50007589  0.00014585  0.74992411
   0.50007589  0.50007589  0.24985415
   0.50037717  0.50037717  0.74962283
   0.99792684  0.25207316  0.99792684
   0.99989719  0.25010281  0.50055417
   0.99989719  0.74944583  0.99989719
   0.00014585  0.74992411  0.50007589
   0.50055417  0.25010281  0.99989719
   0.50007589  0.24985415  0.50007589
   0.50007589  0.74992411  0.00014585
   0.50037717  0.74962283  0.50037717
 
 position of ions in cartesian coordinates  (Angst):
   1.48873262  1.48873262  1.48873262
  11.87431664 11.87431664 11.87431664
  11.90839661 11.90839661  5.95816381
  11.90839661  5.95816381 11.90839661
  11.90657829  5.95838196  5.95838196
   5.95816381 11.90839661 11.90839661
   5.95838196 11.90657829  5.95838196
   5.95838196  5.95838196 11.90657829
   5.95507757  5.95507757  5.95507757
  11.87431664  3.01300957  3.01300957
  11.90839661  2.97892960  8.92916240
  11.90839661  8.92916240  2.97892960
  11.90657829  8.92894425  8.92894425
   5.95816381  2.97892960  2.97892960
   5.95838196  2.98074792  8.92894425
   5.95838196  8.92894425  2.98074792
   5.95507757  8.93224864  8.93224864
   3.01300957 11.87431664  3.01300957
   2.97892960 11.90839661  8.92916240
   2.97892960  5.95816381  2.97892960
   2.98074792  5.95838196  8.92894425
   8.92916240 11.90839661  2.97892960
   8.92894425 11.90657829  8.92894425
   8.92894425  5.95838196  2.98074792
   8.93224864  5.95507757  8.93224864
   3.01300957  3.01300957 11.87431664
   2.97892960  2.97892960  5.95816381
   2.97892960  8.92916240 11.90839661
   2.98074792  8.92894425  5.95838196
   8.92916240  2.97892960 11.90839661
   8.92894425  2.98074792  5.95838196
   8.92894425  8.92894425 11.90657829
   8.93224864  8.93224864  5.95507757
   1.48873262  1.48873262  4.47163367
   1.48873262  1.48873262 10.41569254
   1.48873262  7.44366310  4.46484102
   1.48873262  7.44366310 10.42248519
   7.44366310  1.48873262  4.46484102
   7.44366310  1.48873262 10.42248519
   7.44366310  7.44366310  4.46204816
   7.44366310  7.44366310 10.42527805
   1.48873262  4.47163367  1.48873262
   1.48873262  4.46484102  7.44366310
   1.48873262 10.41569254  1.48873262
   1.48873262 10.42248519  7.44366310
   7.44366310  4.46484102  1.48873262
   7.44366310  4.46204816  7.44366310
   7.44366310 10.42248519  1.48873262
   7.44366310 10.42527805  7.44366310
   4.47163367  1.48873262  1.48873262
   4.46484102  1.48873262  7.44366310
   4.46484102  7.44366310  1.48873262
   4.46204816  7.44366310  7.44366310
  10.41569254  1.48873262  1.48873262
  10.42248519  1.48873262  7.44366310
  10.42248519  7.44366310  1.48873262
  10.42527805  7.44366310  7.44366310
   4.47935881  4.47935881  4.47935881
   4.48059962  4.48059962 10.40672658
   4.48059962 10.40672658  4.48059962
   4.47935881 10.40796740 10.40796740
  10.40672658  4.48059962  4.48059962
  10.40796740  4.47935881 10.40796740
  10.40796740 10.40796740  4.47935881
  10.40672658 10.40672658 10.40672658
   3.00215630 11.88516991 11.88516991
   2.97868973 11.90863648  5.96153052
   2.97868973  5.96153052 11.90863648
   2.97572819  5.95583430  5.95583430
   8.92579569 11.90863648 11.90863648
   8.93149191  0.00173705  5.95583430
   8.93149191  5.95583430  0.00173705
   8.92790372  5.95942249  5.95942249
   3.00215630  3.00215630  3.00215630
   2.97868973  2.97868973  8.92579569
   2.97868973  8.92579569  2.97868973
   2.97572819  8.93149191  8.93149191
   8.92579569  2.97868973  2.97868973
   8.93149191  2.97572819  8.93149191
   8.93149191  8.93149191  2.97572819
   8.92790372  8.92790372  8.92790372
  11.88516991 11.88516991  3.00215630
  11.90863648 11.90863648  8.92579569
  11.90863648  5.96153052  2.97868973
   0.00173705  5.95583430  8.93149191
   5.96153052 11.90863648  2.97868973
   5.95583430  0.00173705  8.93149191
   5.95583430  5.95583430  2.97572819
   5.95942249  5.95942249  8.92790372
  11.88516991  3.00215630 11.88516991
  11.90863648  2.97868973  5.96153052
  11.90863648  8.92579569 11.90863648
   0.00173705  8.93149191  5.95583430
   5.96153052  2.97868973 11.90863648
   5.95583430  2.97572819  5.95583430
   5.95583430  8.93149191  0.00173705
   5.95942249  8.92790372  5.95942249
 


--------------------------------------------------------------------------------------------------------


 k-point   1 :   0.1250 0.1250 0.1250  plane waves:   42892
 k-point   2 :  -0.1250 0.1250 0.1250  plane waves:   42892
 k-point   3 :  -0.1250-0.1250 0.1250  plane waves:   42892
 k-point   4 :   0.1250-0.1250 0.1250  plane waves:   42892
 k-point   5 :   0.3750 0.1250 0.1250  plane waves:   42879
 k-point   6 :   0.1250 0.3750 0.1250  plane waves:   42879
 k-point   7 :   0.1250 0.1250 0.3750  plane waves:   42879
 k-point   8 :  -0.1250 0.3750 0.1250  plane waves:   42879
 k-point   9 :  -0.3750 0.1250 0.1250  plane waves:   42879
 k-point  10 :  -0.1250 0.1250 0.3750  plane waves:   42879
 k-point  11 :  -0.3750-0.1250 0.1250  plane waves:   42879
 k-point  12 :  -0.1250-0.3750 0.1250  plane waves:   42879
 k-point  13 :  -0.1250-0.1250 0.3750  plane waves:   42879
 k-point  14 :   0.1250-0.3750 0.1250  plane waves:   42879
 k-point  15 :   0.3750-0.1250 0.1250  plane waves:   42879
 k-point  16 :   0.1250-0.1250 0.3750  plane waves:   42879
 k-point  17 :   0.3750 0.3750 0.1250  plane waves:   42888
 k-point  18 :   0.1250 0.3750 0.3750  plane waves:   42888
 k-point  19 :   0.3750 0.1250 0.3750  plane waves:   42888
 k-point  20 :  -0.3750 0.3750 0.1250  plane waves:   42888
 k-point  21 :  -0.3750 0.1250 0.3750  plane waves:   42888
 k-point  22 :  -0.1250 0.3750 0.3750  plane waves:   42888
 k-point  23 :  -0.3750-0.3750 0.1250  plane waves:   42888
 k-point  24 :  -0.1250-0.3750 0.3750  plane waves:   42888
 k-point  25 :  -0.3750-0.1250 0.3750  plane waves:   42888
 k-point  26 :   0.3750-0.3750 0.1250  plane waves:   42888
 k-point  27 :   0.3750-0.1250 0.3750  plane waves:   42888
 k-point  28 :   0.1250-0.3750 0.3750  plane waves:   42888
 k-point  29 :   0.3750 0.3750 0.3750  plane waves:   42868
 k-point  30 :  -0.3750 0.3750 0.3750  plane waves:   42868
 k-point  31 :  -0.3750-0.3750 0.3750  plane waves:   42868
 k-point  32 :   0.3750-0.3750 0.3750  plane waves:   42868

 maximum and minimum number of plane-waves per node :      5429     5312

 maximum number of plane-waves:     42892
 maximum index in each direction: 
   IXMAX=   22   IYMAX=   22   IZMAX=   21
   IXMIN=  -22   IYMIN=  -22   IZMIN=  -22


 parallel 3D FFT for wavefunctions:
    minimum data exchange during FFTs selected (reduces bandwidth)
 parallel 3D FFT for charge:
    minimum data exchange during FFTs selected (reduces bandwidth)


 total amount of memory used by VASP MPI-rank0   339258. kBytes
=======================================================================

   base      :      30000. kBytes
   nonl-proj :     107913. kBytes
   fftplans  :       6154. kBytes
   grid      :      10964. kBytes
   one-center:        202. kBytes
   wavefun   :     184025. kBytes
 
     INWAV:  cpu time      0.0000: real time      0.0002
 Broyden mixing: mesh for mixing (old mesh)
   NGX = 43   NGY = 43   NGZ = 43
  (NGX  =180   NGY  =180   NGZ  =180)
  gives a total of  79507 points

 initial charge density was supplied:
 charge density of overlapping atoms calculated
 number of electron     842.0000000 magnetization 
 keeping initial charge density in first step


--------------------------------------------------------------------------------------------------------


 Maximum index for augmentation-charges          985 (set IRDMAX)


--------------------------------------------------------------------------------------------------------


 First call to EWALD:  gamma=   0.149
 Maximum number of real-space cells 3x 3x 3
 Maximum number of reciprocal cells 3x 3x 3

    FEWALD:  cpu time      0.0037: real time      0.0037


--------------------------------------- Iteration      1(   1)  ---------------------------------------


    POTLOK:  cpu time      0.0885: real time      0.0989
    SETDIJ:  cpu time      0.0128: real time      0.0147
     EDDAV:  cpu time    141.7484: real time    144.0117
       DOS:  cpu time      0.0076: real time      0.0085
    --------------------------------------------
      LOOP:  cpu time    141.8573: real time    144.1339

 eigenvalue-minimisations  : 32768
 total energy-change (2. order) : 0.1159063E+05  (-0.3451565E+05)
 number of electron     842.0000000 magnetization 
 augmentation part      842.0000000 magnetization 

 Free energy of the ion-electron system (eV)
  ---------------------------------------------------
  alpha Z        PSCENC =      3041.91328531
  Ewald energy   TEWEN  =    -61005.05170730
  -Hartree energ DENC   =    -17595.36670628
  -exchange      EXHF   =         0.00000000
  -V(xc)+E(xc)   XCENC  =       525.06193451
  PAW double counting   =     63437.22670376   -61413.74729216
  entropy T*S    EENTRO =        -0.02644723
  eigenvalues    EBANDS =      9940.60892342
  atomic energy  EATOM  =     74660.01064857
  Solvation  Ediel_sol  =         0.00000000
  ---------------------------------------------------
  free energy    TOTEN  =     11590.62934259 eV

  energy without entropy =    11590.65578983  energy(sigma->0) =    11590.64256621


--------------------------------------------------------------------------------------------------------




--------------------------------------- Iteration      1(   2)  ---------------------------------------


     EDDAV:  cpu time    142.1464: real time    144.4193
       DOS:  cpu time      0.0079: real time      0.0079
    --------------------------------------------
      LOOP:  cpu time    142.1543: real time    144.4273

 eigenvalue-minimisations  : 32832
 total energy-change (2. order) :-0.1066875E+05  (-0.1037653E+05)
 number of electron     842.0000000 magnetization 
 augmentation part      842.0000000 magnetization 

 Free energy of the ion-electron system (eV)
  ---------------------------------------------------
  alpha Z        PSCENC =      3041.91328531
  Ewald energy   TEWEN  =    -61005.05170730
  -Hartree energ DENC   =    -17595.36670628
  -exchange      EXHF   =         0.00000000
  -V(xc)+E(xc)   XCENC  =       525.06193451
  PAW double counting   =     63437.22670376   -61413.74729216
  entropy T*S    EENTRO =        -0.03359142
  eigenvalues    EBANDS =      -728.13876767
  atomic energy  EATOM  =     74660.01064857
  Solvation  Ediel_sol  =         0.00000000
  ---------------------------------------------------
  free energy    TOTEN  =       921.87450732 eV

  energy without entropy =      921.90809874  energy(sigma->0) =      921.89130303


--------------------------------------------------------------------------------------------------------




--------------------------------------- Iteration      1(   3)  ---------------------------------------


     EDDAV:  cpu time    160.5441: real time    163.0558
       DOS:  cpu time      0.0027: real time      0.0027
    --------------------------------------------
      LOOP:  cpu time    160.5469: real time    163.0586

 eigenvalue-minimisations  : 38384
 total energy-change (2. order) :-0.1457894E+04  (-0.1371558E+04)
 number of electron     842.0000000 magnetization 
 augmentation part      842.0000000 magnetization 

 Free energy of the ion-electron system (eV)
  ---------------------------------------------------
  alpha Z        PSCENC =      3041.91328531
  Ewald energy   TEWEN  =    -61005.05170730
  -Hartree energ DENC   =    -17595.36670628
  -exchange      EXHF   =         0.00000000
  -V(xc)+E(xc)   XCENC  =       525.06193451
  PAW double counting   =     63437.22670376   -61413.74729216
  entropy T*S    EENTRO =        -0.00000000
  eigenvalues    EBANDS =     -2186.06637897
  atomic energy  EATOM  =     74660.01064857
  Solvation  Ediel_sol  =         0.00000000
  ---------------------------------------------------
  free energy    TOTEN  =      -536.01951256 eV

  energy without entropy =     -536.01951256  energy(sigma->0) =     -536.01951256


--------------------------------------------------------------------------------------------------------




--------------------------------------- Iteration      1(   4)  ---------------------------------------


     EDDAV:  cpu time    215.5896: real time    218.9816
       DOS:  cpu time      0.0023: real time      0.0023
    --------------------------------------------
      LOOP:  cpu time    215.5919: real time    218.9839

 eigenvalue-minimisations  : 55000
 total energy-change (2. order) :-0.2443382E+03  (-0.2385890E+03)
 number of electron     842.0000000 magnetization 
 augmentation part      842.0000000 magnetization 

 Free energy of the ion-electron system (eV)
  ---------------------------------------------------
  alpha Z        PSCENC =      3041.91328531
  Ewald energy   TEWEN  =    -61005.05170730
  -Hartree energ DENC   =    -17595.36670628
  -exchange      EXHF   =         0.00000000
  -V(xc)+E(xc)   XCENC  =       525.06193451
  PAW double counting   =     63437.22670376   -61413.74729216
  entropy T*S    EENTRO =        -0.00000000
  eigenvalues    EBANDS =     -2430.40456483
  atomic energy  EATOM  =     74660.01064857
  Solvation  Ediel_sol  =         0.00000000
  ---------------------------------------------------
  free energy    TOTEN  =      -780.35769842 eV

  energy without entropy =     -780.35769842  energy(sigma->0) =     -780.35769842


--------------------------------------------------------------------------------------------------------




--------------------------------------- Iteration      1(   5)  ---------------------------------------


     EDDAV:  cpu time    226.6097: real time    230.2168
       DOS:  cpu time      0.0028: real time      0.0028
    CHARGE:  cpu time      3.1113: real time      3.1634
    MIXING:  cpu time      0.0023: real time      0.0030
    --------------------------------------------
      LOOP:  cpu time    229.7261: real time    233.3861

 eigenvalue-minimisations  : 58360
 total energy-change (2. order) :-0.2242427E+02  (-0.2224979E+02)
 number of electron     841.9999749 magnetization 
 augmentation part      148.8944149 magnetization 

 Broyden mixing:
  rms(total) = 0.64252E+01    rms(broyden)= 0.64249E+01
  rms(prec ) = 0.70962E+01
  weight for this iteration     100.00

 Free energy of the ion-electron system (eV)
  ---------------------------------------------------
  alpha Z        PSCENC =      3041.91328531
  Ewald energy   TEWEN  =    -61005.05170730
  -Hartree energ DENC   =    -17595.36670628
  -exchange      EXHF   =         0.00000000
  -V(xc)+E(xc)   XCENC  =       525.06193451
  PAW double counting   =     63437.22670376   -61413.74729216
  entropy T*S    EENTRO =        -0.00000000
  eigenvalues    EBANDS =     -2452.82883211
  atomic energy  EATOM  =     74660.01064857
  Solvation  Ediel_sol  =         0.00000000
  ---------------------------------------------------
  free energy    TOTEN  =      -802.78196571 eV

  energy without entropy =     -802.78196571  energy(sigma->0) =     -802.78196571


--------------------------------------------------------------------------------------------------------




--------------------------------------- Iteration      1(   6)  ---------------------------------------


    POTLOK:  cpu time      0.0687: real time      0.0695
    SETDIJ:  cpu time      0.0127: real time      0.0128
[...]
   0.894E+01 -.893E+01 0.894E+01   -.890E+01 0.890E+01 -.890E+01   -.353E-01 0.355E-01 -.354E-01   -.365E-02 -.496E-02 0.139E-02
   -.127E+03 -.127E+03 0.127E+03   0.126E+03 0.126E+03 -.126E+03   0.658E+00 0.658E+00 -.658E+00   0.327E-02 -.142E-01 -.174E-04
   -.172E+02 -.172E+02 -.336E+02   0.172E+02 0.172E+02 0.337E+02   0.265E-02 0.245E-02 -.555E-01   -.319E-02 0.948E-02 0.153E-02
   -.172E+02 0.336E+02 0.172E+02   0.172E+02 -.337E+02 -.172E+02   0.269E-02 0.554E-01 -.279E-02   -.741E-02 0.625E-02 0.139E-01
   -.363E+01 0.130E+02 -.130E+02   0.371E+01 -.130E+02 0.130E+02   -.547E-01 0.321E-01 -.323E-01   -.221E-01 0.406E-02 0.622E-02
   0.336E+02 -.172E+02 0.172E+02   -.337E+02 0.172E+02 -.172E+02   0.555E-01 0.272E-02 -.256E-02   0.600E-03 -.892E-02 -.174E-02
   0.130E+02 -.365E+01 -.130E+02   -.130E+02 0.371E+01 0.130E+02   0.323E-01 -.551E-01 -.321E-01   -.611E-02 -.269E-02 -.382E-02
   0.130E+02 0.130E+02 0.364E+01   -.130E+02 -.130E+02 -.371E+01   0.321E-01 0.322E-01 0.549E-01   0.680E-02 -.918E-03 0.115E-01
   0.894E+01 0.893E+01 -.893E+01   -.890E+01 -.890E+01 0.890E+01   -.353E-01 -.355E-01 0.354E-01   -.770E-03 0.833E-02 -.352E-02
   -.549E-03 0.193E-02 -.973E+02   0.128E-12 0.109E-12 0.976E+02   -.605E-04 0.163E-03 -.298E+00   0.543E-03 -.196E-02 -.276E-02
   -.174E-02 0.253E-02 0.973E+02   -.502E-13 -.560E-13 -.976E+02   -.685E-04 0.104E-03 0.298E+00   0.178E-02 -.259E-02 0.235E-02
   0.432E-03 -.174E-02 -.109E+02   0.551E-13 0.127E-12 0.110E+02   0.255E-04 -.119E-03 -.710E-01   -.444E-03 0.178E-02 -.423E-02
   -.299E-03 -.254E-02 0.109E+02   -.888E-14 0.235E-13 -.110E+02   -.258E-04 -.141E-03 0.711E-01   0.308E-03 0.260E-02 0.484E-02
   0.721E-03 0.909E-03 -.109E+02   -.613E-13 -.462E-13 0.110E+02   0.327E-04 0.462E-04 -.711E-01   -.731E-03 -.934E-03 -.286E-02
   0.122E-02 0.723E-03 0.109E+02   -.924E-13 0.604E-13 -.110E+02   0.730E-04 0.900E-04 0.712E-01   -.126E-02 -.744E-03 0.333E-02
   -.971E-03 -.956E-03 -.584E+01   -.355E-13 -.213E-13 0.589E+01   -.308E-04 -.860E-04 -.313E-01   0.990E-03 0.980E-03 -.177E-02
   0.675E-03 -.109E-02 0.584E+01   0.497E-13 0.435E-13 -.589E+01   0.150E-04 -.960E-04 0.313E-01   -.688E-03 0.112E-02 0.115E-02
   -.163E-02 -.973E+02 0.169E-02   0.751E-13 0.976E+02 0.258E-13   -.126E-03 -.299E+00 0.143E-03   0.166E-02 0.110E-02 -.171E-02
   -.873E-03 -.109E+02 -.173E-02   0.320E-13 0.110E+02 0.937E-13   -.214E-05 -.713E-01 -.122E-03   0.896E-03 -.151E-02 0.176E-02
   -.919E-03 0.973E+02 0.239E-02   0.675E-13 -.976E+02 -.142E-13   -.240E-04 0.299E+00 0.965E-04   0.929E-03 -.129E-03 -.244E-02
   0.126E-02 0.109E+02 -.243E-02   -.888E-13 -.110E+02 -.258E-13   0.212E-04 0.713E-01 -.131E-03   -.129E-02 0.985E-03 0.248E-02
   0.168E-02 -.109E+02 0.673E-03   -.151E-13 0.110E+02 0.702E-13   0.918E-04 -.712E-01 0.268E-04   -.172E-02 -.238E-02 -.684E-03
   0.712E-03 -.584E+01 -.630E-03   -.266E-14 0.589E+01 0.595E-13   0.203E-04 -.314E-01 -.545E-04   -.722E-03 -.181E-03 0.644E-03
   0.371E-03 0.109E+02 0.519E-03   -.631E-13 -.110E+02 -.160E-13   0.174E-04 0.712E-01 0.691E-04   -.378E-03 0.164E-02 -.527E-03
   -.111E-02 0.584E+01 -.720E-03   -.426E-13 -.589E+01 -.142E-13   -.395E-04 0.314E-01 -.623E-04   0.113E-02 0.518E-03 0.737E-03
   -.973E+02 0.181E-02 0.250E-02   0.976E+02 -.213E-13 0.178E-13   -.298E+00 0.748E-04 0.113E-03   -.300E-02 -.184E-02 -.256E-02
   -.109E+02 -.260E-03 -.247E-02   0.110E+02 -.551E-13 0.560E-13   -.711E-01 0.597E-04 -.158E-03   -.287E-02 0.263E-03 0.252E-02
   -.109E+02 -.161E-02 0.985E-03   0.110E+02 0.790E-13 0.675E-13   -.710E-01 -.100E-03 0.729E-04   -.512E-02 0.164E-02 -.100E-02
   -.584E+01 -.736E-04 -.148E-02   0.589E+01 -.711E-14 -.497E-13   -.312E-01 -.574E-04 -.772E-04   -.232E-02 0.834E-04 0.151E-02
   0.973E+02 0.259E-02 0.150E-02   -.976E+02 0.582E-13 -.644E-13   0.298E+00 0.183E-03 0.121E-03   0.216E-02 -.265E-02 -.152E-02
   0.109E+02 0.195E-02 -.178E-02   -.110E+02 -.409E-13 -.977E-14   0.711E-01 0.834E-04 -.104E-03   0.319E-02 -.200E-02 0.181E-02
   0.109E+02 -.283E-02 0.280E-03   -.110E+02 0.222E-14 -.178E-14   0.710E-01 -.163E-03 0.249E-04   0.527E-02 0.289E-02 -.276E-03
   0.584E+01 -.181E-02 0.197E-03   -.589E+01 -.187E-13 -.231E-13   0.312E-01 -.113E-03 -.281E-04   0.198E-02 0.185E-02 -.199E-03
   -.138E+02 -.138E+02 -.138E+02   0.140E+02 0.140E+02 0.140E+02   -.169E+00 -.169E+00 -.169E+00   -.197E-02 -.423E-03 -.275E-02
   -.186E+02 -.186E+02 0.186E+02   0.188E+02 0.188E+02 -.188E+02   -.244E+00 -.244E+00 0.244E+00   -.286E-02 -.192E-02 0.223E-02
   -.186E+02 0.186E+02 -.186E+02   0.188E+02 -.188E+02 0.188E+02   -.244E+00 0.244E+00 -.244E+00   -.274E-02 0.543E-03 -.420E-02
   -.138E+02 0.138E+02 0.138E+02   0.140E+02 -.140E+02 -.140E+02   -.169E+00 0.169E+00 0.169E+00   -.464E-02 0.157E-02 0.430E-02
   0.186E+02 -.186E+02 -.186E+02   -.188E+02 0.188E+02 0.188E+02   0.244E+00 -.244E+00 -.244E+00   0.172E-02 0.836E-03 -.136E-02
   0.138E+02 -.138E+02 0.138E+02   -.140E+02 0.140E+02 -.140E+02   0.169E+00 -.169E+00 0.169E+00   0.293E-02 -.755E-03 0.184E-02
   0.138E+02 0.138E+02 -.138E+02   -.140E+02 -.140E+02 0.140E+02   0.169E+00 0.169E+00 -.169E+00   0.267E-02 -.861E-03 -.259E-02
   0.186E+02 0.186E+02 0.186E+02   -.188E+02 -.188E+02 -.188E+02   0.244E+00 0.244E+00 0.244E+00   0.439E-02 0.732E-03 0.227E-02
   -.475E+02 0.475E+02 0.475E+02   0.484E+02 -.484E+02 -.484E+02   -.824E+00 0.824E+00 0.824E+00   -.301E-02 0.104E-02 0.382E-02
   -.597E+01 0.598E+01 -.143E+02   0.596E+01 -.596E+01 0.143E+02   0.173E-01 -.171E-01 -.871E-02   -.597E-02 -.277E-02 0.490E-02
   -.598E+01 -.143E+02 0.598E+01   0.596E+01 0.143E+02 -.596E+01   0.171E-01 -.868E-02 -.171E-01   0.181E-02 0.221E-02 0.995E-03
   -.185E+01 -.447E+01 -.447E+01   0.186E+01 0.448E+01 0.448E+01   -.141E-01 -.853E-02 -.850E-02   -.293E-02 -.247E-02 -.173E-02
   0.143E+02 0.598E+01 0.598E+01   -.143E+02 -.596E+01 -.596E+01   0.864E-02 -.171E-01 -.171E-01   -.126E-02 0.438E-03 0.105E-02
   0.447E+01 0.185E+01 -.447E+01   -.448E+01 -.186E+01 0.448E+01   0.859E-02 0.142E-01 -.852E-02   -.157E-02 -.843E-03 -.158E-02
   0.447E+01 -.448E+01 0.185E+01   -.448E+01 0.448E+01 -.186E+01   0.846E-02 -.864E-02 0.142E-01   0.378E-02 0.311E-02 0.186E-02
   0.349E+01 -.348E+01 -.348E+01   -.345E+01 0.345E+01 0.345E+01   -.459E-01 0.460E-01 0.459E-01   -.137E-02 -.128E-02 -.596E-03
   -.476E+02 -.475E+02 -.475E+02   0.484E+02 0.484E+02 0.484E+02   -.824E+00 -.824E+00 -.824E+00   0.424E-02 -.169E-02 -.365E-02
   -.598E+01 -.598E+01 0.143E+02   0.596E+01 0.596E+01 -.143E+02   0.173E-01 0.171E-01 0.854E-02   -.366E-02 0.671E-03 0.321E-02
   -.597E+01 0.143E+02 -.597E+01   0.596E+01 -.143E+02 0.596E+01   0.172E-01 0.867E-02 0.173E-01   -.517E-02 -.154E-02 -.765E-02
   -.185E+01 0.447E+01 0.447E+01   0.186E+01 -.448E+01 -.448E+01   -.141E-01 0.847E-02 0.856E-02   -.517E-02 0.481E-02 0.287E-03
   0.143E+02 -.598E+01 -.598E+01   -.143E+02 0.596E+01 0.596E+01   0.864E-02 0.172E-01 0.171E-01   -.825E-03 -.330E-02 0.116E-02
   0.447E+01 -.185E+01 0.447E+01   -.448E+01 0.186E+01 -.448E+01   0.858E-02 -.142E-01 0.855E-02   -.160E-02 -.539E-03 0.109E-02
   0.447E+01 0.447E+01 -.185E+01   -.448E+01 -.448E+01 0.186E+01   0.848E-02 0.857E-02 -.142E-01   0.315E-02 -.883E-04 -.301E-02
   0.349E+01 0.348E+01 0.349E+01   -.345E+01 -.345E+01 -.345E+01   -.459E-01 -.460E-01 -.459E-01   -.134E-02 0.247E-02 0.252E-04
   0.475E+02 0.476E+02 -.475E+02   -.484E+02 -.484E+02 0.484E+02   0.824E+00 0.824E+00 -.824E+00   0.235E-02 -.477E-02 -.497E-02
   0.597E+01 0.598E+01 0.143E+02   -.596E+01 -.596E+01 -.143E+02   -.173E-01 -.171E-01 0.862E-02   0.648E-02 -.172E-02 -.156E-03
   0.598E+01 -.143E+02 -.598E+01   -.596E+01 0.143E+02 0.596E+01   -.171E-01 -.874E-02 0.172E-01   -.490E-03 0.498E-02 -.206E-02
   0.185E+01 -.447E+01 0.447E+01   -.186E+01 0.448E+01 -.448E+01   0.141E-01 -.852E-02 0.854E-02   0.380E-02 -.197E-02 0.734E-03
   -.143E+02 0.597E+01 -.597E+01   0.143E+02 -.596E+01 0.596E+01   -.863E-02 -.173E-01 0.172E-01   0.125E-02 0.510E-02 -.526E-02
   -.447E+01 0.185E+01 0.447E+01   0.448E+01 -.186E+01 -.448E+01   -.859E-02 0.143E-01 0.852E-02   0.152E-02 -.823E-03 0.235E-02
   -.447E+01 -.447E+01 -.185E+01   0.448E+01 0.448E+01 0.186E+01   -.845E-02 -.859E-02 -.142E-01   -.456E-02 0.144E-02 -.787E-03
   -.349E+01 -.348E+01 0.348E+01   0.345E+01 0.345E+01 -.345E+01   0.459E-01 0.460E-01 -.459E-01   -.433E-04 -.292E-02 0.161E-02
   0.475E+02 -.475E+02 0.476E+02   -.484E+02 0.484E+02 -.484E+02   0.824E+00 -.824E+00 0.824E+00   0.279E-02 -.353E-02 -.161E-02
   0.598E+01 -.598E+01 -.143E+02   -.596E+01 0.596E+01 0.143E+02   -.172E-01 0.171E-01 -.869E-02   0.170E-02 0.214E-02 0.248E-02
   0.598E+01 0.143E+02 0.597E+01   -.596E+01 -.143E+02 -.596E+01   -.172E-01 0.864E-02 -.173E-01   0.283E-02 0.646E-03 0.579E-02
   0.185E+01 0.447E+01 -.447E+01   -.186E+01 -.448E+01 0.448E+01   0.141E-01 0.849E-02 -.853E-02   0.465E-02 0.429E-02 -.120E-03
   -.143E+02 -.597E+01 0.598E+01   0.143E+02 0.596E+01 -.596E+01   -.853E-02 0.172E-01 -.172E-01   -.427E-02 -.416E-02 0.206E-03
   -.447E+01 -.185E+01 -.447E+01   0.448E+01 0.186E+01 0.448E+01   -.860E-02 -.142E-01 -.848E-02   0.161E-02 0.794E-03 -.278E-02
   -.447E+01 0.447E+01 0.185E+01   0.448E+01 -.448E+01 -.186E+01   -.850E-02 0.856E-02 0.142E-01   -.283E-02 0.431E-03 0.305E-02
   -.349E+01 0.349E+01 -.349E+01   0.345E+01 -.345E+01 0.345E+01   0.459E-01 -.459E-01 0.459E-01   0.392E-02 0.793E-04 0.168E-02
 -----------------------------------------------------------------------------------------------
   -.521E-02 0.775E-02 0.631E-02   -.369E-12 -.955E-13 0.280E-12   -.898E-04 0.142E-03 0.723E-04   0.530E-02 -.790E-02 -.646E-02
 
 
 POSITION                                       TOTAL-FORCE (eV/Angst)
 -----------------------------------------------------------------------------------
      1.48873      1.48873      1.48873         0.000032     -0.000055     -0.000050
     11.87432     11.87432     11.87432         0.013672      0.013792      0.013786
     11.90840     11.90840      5.95816         0.002172      0.002532     -0.005019
     11.90840      5.95816     11.90840         0.002533     -0.004989      0.002259
     11.90658      5.95838      5.95838         0.002148     -0.003271     -0.003415
      5.95816     11.90840     11.90840        -0.004846      0.002138      0.002152
      5.95838     11.90658      5.95838        -0.003805      0.002226     -0.003502
      5.95838      5.95838     11.90658        -0.003269     -0.003497      0.002310
      5.95508      5.95508      5.95508        -0.000763     -0.000502     -0.000612
     11.87432      3.01301      3.01301         0.014053     -0.013857     -0.013917
     11.90840      2.97893      8.92916         0.002119     -0.002330      0.004827
     11.90840      8.92916      2.97893         0.002306      0.004862     -0.002154
     11.90658      8.92894      8.92894         0.002071      0.003245      0.003609
      5.95816      2.97893      2.97893        -0.004715     -0.002089     -0.002378
      5.95838      2.98075      8.92894        -0.003576     -0.002445      0.003371
      5.95838      8.92894      2.98075        -0.003551      0.003638     -0.002088
      5.95508      8.93225      8.93225        -0.000843      0.000546      0.000745
      3.01301     11.87432      3.01301        -0.013826      0.013741     -0.013486
      2.97893     11.90840      8.92916        -0.001984      0.002409      0.004933
      2.97893      5.95816      2.97893        -0.002501     -0.004961     -0.002405
      2.98075      5.95838      8.92894        -0.002222     -0.003210      0.003446
      8.92916     11.90840      2.97893         0.004959      0.002226     -0.002366
      8.92894     11.90658      8.92894         0.003640      0.002331      0.003503
      8.92894      5.95838      2.98075         0.003287     -0.003572     -0.002274
      8.93225      5.95508      8.93225         0.000803     -0.000527      0.000691
      3.01301      3.01301     11.87432        -0.014048     -0.013637      0.013947
      2.97893      2.97893      5.95816        -0.002262     -0.002538     -0.004862
      2.97893      8.92916     11.90840        -0.002308      0.004842      0.002084
      2.98075      8.92894      5.95838        -0.001933      0.003364     -0.003645
      8.92916      2.97893     11.90840         0.004824     -0.002206      0.002369
      8.92894      2.98075      5.95838         0.003603     -0.002331     -0.003367
      8.92894      8.92894     11.90658         0.003408      0.003545      0.002117
      8.93225      8.93225      5.95508         0.000843      0.000530     -0.000673
      1.48873      1.48873      4.47163        -0.000067      0.000135      0.006041
      1.48873      1.48873     10.41569        -0.000030      0.000045     -0.006037
      1.48873      7.44366      4.46484         0.000014     -0.000073      0.001536
      1.48873      7.44366     10.42249        -0.000017     -0.000083     -0.001522
      7.44366      1.48873      4.46484         0.000023      0.000021      0.001471
      7.44366      1.48873     10.42249         0.000038      0.000069     -0.001447
      7.44366      7.44366      4.46205        -0.000011     -0.000062      0.013511
      7.44366      7.44366     10.42528         0.000002     -0.000066     -0.013523
      1.48873      4.47163      1.48873        -0.000096      0.005863      0.000123
      1.48873      4.46484      7.44366         0.000022      0.001370     -0.000086
      1.48873     10.41569      1.48873        -0.000014     -0.005856      0.000045
      1.48873     10.42249      7.44366        -0.000011     -0.001378     -0.000083
      7.44366      4.46484      1.48873         0.000053      0.001416      0.000017
      7.44366      4.46205      7.44366         0.000010      0.013474     -0.000040
      7.44366     10.42249      1.48873         0.000011     -0.001404      0.000062
      7.44366     10.42528      7.44366        -0.000020     -0.013454     -0.000045
      4.47163      1.48873      1.48873         0.006040      0.000039      0.000055
      4.46484      1.48873      7.44366         0.001480      0.000063     -0.000102
      4.46484      7.44366      1.48873         0.001587     -0.000065      0.000054
      4.46205      7.44366      7.44366         0.013572     -0.000048     -0.000050
     10.41569      1.48873      1.48873        -0.006017      0.000130      0.000106
     10.42249      1.48873      7.44366        -0.001480      0.000037     -0.000073
     10.42249      7.44366      1.48873        -0.001575     -0.000099      0.000029
     10.42528      7.44366      7.44366        -0.013568     -0.000072     -0.000029
      4.47936      4.47936      4.47936         0.004357      0.004238      0.004415
      4.48060      4.48060     10.40673         0.007967      0.007879     -0.007915
      4.48060     10.40673      4.48060         0.007972     -0.007849      0.007941
      4.47936     10.40797     10.40797         0.004420     -0.004255     -0.004379
     10.40673      4.48060      4.48060        -0.007894      0.007786      0.007840
     10.40797      4.47936     10.40797        -0.004424      0.004250     -0.004332
     10.40797     10.40797      4.47936        -0.004394     -0.004187      0.004380
     10.40673     10.40673     10.40673        -0.007962     -0.007837     -0.007904
      3.00216     11.88517     11.88517         0.004238     -0.004198     -0.004332
      2.97869     11.90864      5.96153         0.002688     -0.002305      0.017250
      2.97869      5.96153     11.90864         0.002335      0.017378     -0.002479
      2.97573      5.95583      5.95583        -0.004429      0.001906      0.001835
      8.92580     11.90864     11.90864        -0.017387     -0.002524     -0.002466
      8.93149      0.00174      5.95583        -0.001627      0.004587      0.001820
      8.93149      5.95583      0.00174        -0.001956      0.001657      0.004501
      8.92790      5.95942      5.95942        -0.012871      0.013030      0.012962
      3.00216      3.00216      3.00216         0.003885      0.004170      0.004190
      2.97869      2.97869      8.92580         0.002616      0.002359     -0.017541
      2.97869      8.92580      2.97869         0.002597     -0.017382      0.002719
      2.97573      8.93149      8.93149        -0.004348     -0.001965     -0.001669
      8.92580      2.97869      2.97869        -0.017480      0.002579      0.002372
      8.93149      2.97573      8.93149        -0.001675     -0.004568     -0.001818
      8.93149      8.93149      2.97573        -0.001841     -0.001720     -0.004456
      8.92790      8.92790      8.92790        -0.012826     -0.013034     -0.012904
     11.88517     11.88517      3.00216        -0.004190     -0.003949      0.004284
     11.90864     11.90864      8.92580        -0.002707     -0.002371     -0.017385
     11.90864      5.96153      2.97869        -0.002363      0.017330      0.002511
      0.00174      5.95583      8.93149         0.004422      0.001897     -0.001770
      5.96153     11.90864      2.97869         0.017400     -0.002681      0.002592
      5.95583      0.00174      8.93149         0.001624      0.004611     -0.001779
      5.95583      5.95583      2.97573         0.001963      0.001672     -0.004563
      5.95942      5.95942      8.92790         0.012901      0.013079     -0.012996
     11.88517      3.00216     11.88517        -0.004134      0.004215     -0.004029
     11.90864      2.97869      5.96153        -0.002517      0.002300      0.017385
     11.90864      8.92580     11.90864        -0.002505     -0.017426     -0.002676
      0.00174      8.93149      5.95583         0.004333     -0.001960      0.001714
      5.96153      2.97869     11.90864         0.017594      0.002606     -0.002428
      5.95583      2.97573      5.95583         0.001674     -0.004583      0.001891
      5.95583      8.93149      0.00174         0.001845     -0.001730      0.004426
      5.95942      8.92790      5.95942         0.012734     -0.012958      0.012842
 -----------------------------------------------------------------------------------
    total drift:                                0.000002     -0.000010     -0.000071


--------------------------------------------------------------------------------------------------------



  FREE ENERGIE OF THE ION-ELECTRON SYSTEM (eV)
  ---------------------------------------------------
  free  energy   TOTEN  =      -761.21430624 eV

  energy  without entropy=     -761.21397483  energy(sigma->0) =     -761.21414054
 


--------------------------------------------------------------------------------------------------------


    POTLOK:  cpu time      0.0780: real time      0.0785


--------------------------------------------------------------------------------------------------------


     LOOP+:  cpu time   5683.4236: real time   5774.8591
    4ORBIT:  cpu time      0.0000: real time      0.0000

 total amount of memory used by VASP MPI-rank0   339258. kBytes
=======================================================================

   base      :      30000. kBytes
   nonl-proj :     107913. kBytes
   fftplans  :       6154. kBytes
   grid      :      10964. kBytes
   one-center:        202. kBytes
   wavefun   :     184025. kBytes
 
  
  
 General timing and accounting informations for this job:
 ========================================================
  
                  Total CPU time used (sec):     5757.221
                            User time (sec):     5683.159
                          System time (sec):       74.061
                         Elapsed time (sec):     5850.742
  
                   Maximum memory used (kb):      555116.
                   Average memory used (kb):          N/A
  
                          Minor page faults:        96813
                          Major page faults:         8465
                 Voluntary context switches:          761
