 vasp.6.3.0 20Jan22 (build Oct 14 2024 11:24:38) complex                        
  
 executed on             LinuxIFC date 2025.05.01  23:30:11
 running on   64 total cores
 distrk:  each k-point on   64 cores,    1 groups
 distr:  one band on NCORE=   8 cores,    8 groups


--------------------------------------------------------------------------------------------------------


 INCAR:
   ISTART = 0            (Read existing wavefunction
   ISPIN = 1            (Non-Spin polarised DFT)
   LREAL = .FALSE.       (Projection operators: automatic)
   ENCUT = 500          (Cut-off energy for plane wave basis set, in eV)
   PREC = Accurate     (Precision level)
   LWAVE = .FALSE.       (Write WAVECAR or not)
   LCHARG = .FALSE.       (Write CHGCAR or not)
   NSW = 0
   IBRION = -1
   ISMEAR = 0            (gaussian smearing method)
   SIGMA = 0.05         (please check the width of the smearing)
   NELM = 60           (Max electronic SCF steps)
   EDIFF = 1E-06        (SCF energy convergence
   NCORE = 8             (square root of total cores)

 POTCAR:    PAW_PBE H 15Jun2001                   
 POTCAR:    PAW_PBE H 15Jun2001                   
   VRHFIN =H: ultrasoft test                                                                        
   LEXCH  = PE                                                                                      
   EATOM  =    12.4884 eV,    0.9179 Ry                                                             
                                                                                                    
   TITEL  = PAW_PBE H 15Jun2001                                                                     
   LULTRA =        F    use ultrasoft PP ?                                                          
   IUNSCR =        0    unscreen: 0-lin 1-nonlin 2-no                                               
   RPACOR =    0.000    partial core radius                                                         
   POMASS =    1.000; ZVAL   =    1.000    mass and valenz                                          
   RCORE  =    1.100    outmost cutoff radius                                                       
   RWIGS  =    0.700; RWIGS  =    0.370    wigner-seitz radius (au A)                               
   ENMAX  =  250.000; ENMIN  =  200.000 eV                                                          
   RCLOC  =    0.701    cutoff for local pot                                                        
   LCOR   =        T    correct aug charges                                                         
   LPAW   =        T    paw PP                                                                      
   EAUG   =  400.000                                                                                
   RMAX   =    1.123    core radius for proj-oper                                                   
   RAUG   =    1.200    factor for augmentation sphere                                              
   RDEP   =    1.112    radius for radial grids                                                     
   RDEPT  =    0.926    core radius for aug-charge                                                  
                                                                                                    
   Atomic configuration                                                                             
    2 entries                                                                                       
     n  l   j            E        occ.                                                              
     1  0  0.50        -6.4927   1.0000                                                             
     2  1  0.50        -3.4015   0.0000                                                             
   Description                                                                                      
     l       E           TYP  RCUT    TYP  RCUT                                                     
     0     -6.4927494     23  1.100                                                                 
     0      6.8029130     23  1.100                                                                 
     1     -4.0817478     23  1.100                                                                 
  local pseudopotential read in
  atomic valenz-charges read in
  non local Contribution for L=           0  read in
    real space projection operators read in
  non local Contribution for L=           0  read in
    real space projection operators read in
  non local Contribution for L=           1  read in
    real space projection operators read in
    PAW grid and wavefunctions read in
 
   number of l-projection  operators is LMAX  =           3
   number of lm-projection operators is LMMAX =           5
 
  PAW_PBE H 15Jun2001                   :
 energy of atom  1       EATOM=  -12.4884
 kinetic energy error for atom=    0.0020 (will be added to EATOM!!)
 
 
 POSCAR: POSCAR generated by EDOPING
  positions in direct lattice
  No initial velocities read in
 exchange correlation table for  LEXCH =        8
   RHO(1)=    0.500       N(1)  =     2000
   RHO(2)=  100.500       N(2)  =     4000
 


--------------------------------------------------------------------------------------------------------


 ion  position               nearest neighbor table
   1  0.000  0.000  0.000-
 
  LATTYP: Found a simple cubic cell.
 ALAT       =    11.9098609671
  
  Lattice vectors:
  
 A1 = (  11.9098609671,   0.0000000000,   0.0000000000)
 A2 = (   0.0000000000,  11.9098609671,   0.0000000000)
 A3 = (   0.0000000000,   0.0000000000,  11.9098609671)


Analysis of symmetry for initial positions (statically):
=====================================================================
 Subroutine PRICEL returns:
 Original cell was already a primitive cell.
 

 Routine SETGRP: Setting up the symmetry group for a 
 simple cubic supercell.


 Subroutine GETGRP returns: Found 48 space group operations
 (whereof 48 operations were pure point group operations)
 out of a pool of 48 trial point group operations.


The static configuration has the point symmetry O_h .


Analysis of symmetry for dynamics (positions and initial velocities):
=====================================================================
 Subroutine PRICEL returns:
 Original cell was already a primitive cell.
 

 Routine SETGRP: Setting up the symmetry group for a 
 simple cubic supercell.


 Subroutine GETGRP returns: Found 48 space group operations
 (whereof 48 operations were pure point group operations)
 out of a pool of 48 trial point group operations.


The dynamic configuration has the point symmetry O_h .


 Subroutine INISYM returns: Found 48 space group operations
 (whereof 48 operations are pure point group operations),
 and found     1 'primitive' translations


----------------------------------------------------------------------------------------

                                     Primitive cell                                     

  volume of cell :    1689.3517

  direct lattice vectors                    reciprocal lattice vectors
    11.909860967  0.000000000  0.000000000     0.083964036 -0.000000000 -0.000000000
     0.000000000 11.909860967  0.000000000     0.000000000  0.083964036 -0.000000000
     0.000000000  0.000000000 11.909860967     0.000000000  0.000000000  0.083964036

  length of vectors
    11.909860967 11.909860967 11.909860967     0.083964036  0.083964036  0.083964036

  position of ions in fractional coordinates (direct lattice)
     0.000000000  0.000000000  0.000000000

  ion indices of the primitive-cell ions
   primitive index   ion index
                 1           1

----------------------------------------------------------------------------------------

 
 
 KPOINTS: K-Spacing Value to Generate K-Mesh: 0.02

Automatic generation of k-mesh.
 Grid dimensions read from file:
 generate k-points for:    1    1    1

 Generating k-lattice:

  Cartesian coordinates                     Fractional coordinates (reciprocal lattice)
     0.083964036 -0.000000000 -0.000000000     1.000000000 -0.000000000  0.000000000
     0.000000000  0.083964036 -0.000000000     0.000000000  1.000000000 -0.000000000
     0.000000000  0.000000000  0.083964036     0.000000000  0.000000000  1.000000000

  Length of vectors
     0.083964036  0.083964036  0.083964036

  Shift w.r.t. Gamma in fractional coordinates (k-lattice)
     0.000000000  0.000000000  0.000000000

 
 Subroutine IBZKPT returns following result:
 ===========================================
 
 Found      1 irreducible k-points:
 
 Following reciprocal coordinates:
            Coordinates               Weight
  0.000000  0.000000  0.000000      1.000000
 
 Following cartesian coordinates:
            Coordinates               Weight
  0.000000  0.000000  0.000000      1.000000
 


--------------------------------------------------------------------------------------------------------




 Dimension of arrays:
   k-points           NKPTS =      1   k-points in BZ     NKDIM =      1   number of bands    NBANDS=      8
   number of dos      NEDOS =    301   number of ions     NIONS =      1
   non local maximal  LDIM  =      3   non local SUM 2l+1 LMDIM =      5
   total plane-waves  NPLWV = 729000
   max r-space proj   IRMAX =      1   max aug-charges    IRDMAX=   2297
   dimension x,y,z NGX =    90 NGY =   90 NGZ =   90
   dimension x,y,z NGXF=   180 NGYF=  180 NGZF=  180
   support grid    NGXF=   180 NGYF=  180 NGZF=  180
   ions per type =               1
   NGX,Y,Z   is equivalent  to a cutoff of  12.56, 12.56, 12.56 a.u.
   NGXF,Y,Z  is equivalent  to a cutoff of  25.13, 25.13, 25.13 a.u.

 SYSTEM =  unknown system                          
 POSCAR =  POSCAR generated by EDOPING             

 Startparameter for this run:
   NWRITE =      2    write-flag & timer
   PREC   = accura    normal or accurate (medium, high low for compatibility)
   ISTART =      0    job   : 0-new  1-cont  2-samecut
   ICHARG =      2    charge: 1-file 2-atom 10-const
   ISPIN  =      1    spin polarized calculation?
   LNONCOLLINEAR =      F non collinear calculations
   LSORBIT =      F    spin-orbit coupling
   INIWAV =      1    electr: 0-lowe 1-rand  2-diag
   LASPH  =      F    aspherical Exc in radial PAW
 Electronic Relaxation 1
   ENCUT  =  500.0 eV  36.75 Ry    6.06 a.u.  21.71 21.71 21.71*2*pi/ulx,y,z
   ENINI  =  500.0     initial cutoff
   ENAUG  =  400.0 eV  augmentation charge cutoff
   NELM   =     60;   NELMIN=  2; NELMDL= -5     # of ELM steps 
   EDIFF  = 0.1E-05   stopping-criterion for ELM
   LREAL  =      F    real-space projection
   NLSPLINE    = F    spline interpolate recip. space projectors
   LCOMPAT=      F    compatible to vasp.4.4
   GGA_COMPAT  = T    GGA compatible to vasp.4.4-vasp.4.6
   LMAXPAW     = -100 max onsite density
   LMAXMIX     =    2 max onsite mixed and CHGCAR
   VOSKOWN=      0    Vosko Wilk Nusair interpolation
   ROPT   =    0.00000
 Ionic relaxation
   EDIFFG = 0.1E-04   stopping-criterion for IOM
   NSW    =      0    number of steps for IOM
   NBLOCK =      1;   KBLOCK =      1    inner block; outer block 
   IBRION =     -1    ionic relax: 0-MD 1-quasi-New 2-CG
   NFREE  =      0    steps in history (QN), initial steepest desc. (CG)
   ISIF   =      2    stress and relaxation
   IWAVPR =     10    prediction:  0-non 1-charg 2-wave 3-comb
   ISYM   =      2    0-nonsym 1-usesym 2-fastsym
   LCORR  =      T    Harris-Foulkes like correction to forces

   POTIM  = 0.5000    time-step for ionic-motion
   TEIN   =    0.0    initial temperature
   TEBEG  =    0.0;   TEEND  =   0.0 temperature during run
   SMASS  =  -3.00    Nose mass-parameter (am)
   estimated Nose-frequenzy (Omega)   =  0.10E-29 period in steps = 0.13E+47 mass=  -0.324E-26a.u.
   SCALEE = 1.0000    scale energy and forces
   NPACO  =    256;   APACO  = 10.0  distance and # of slots for P.C.
   PSTRESS=    0.0 pullay stress

  Mass of Ions in am
   POMASS =   1.00
  Ionic Valenz
   ZVAL   =   1.00
  Atomic Wigner-Seitz radii
   RWIGS  =  -1.00
  virtual crystal weights 
   VCA    =   1.00
   NELECT =       1.0000    total number of electrons
   NUPDOWN=      -1.0000    fix difference up-down

 DOS related values:
   EMIN   =  10.00;   EMAX   =-10.00  energy-range for DOS
   EFERMI =   0.00
   ISMEAR =     0;   SIGMA  =   0.05  broadening in eV -4-tet -1-fermi 0-gaus

 Electronic relaxation 2 (details)
   IALGO  =     38    algorithm
   LDIAG  =      T    sub-space diagonalisation (order eigenvalues)
   LSUBROT=      F    optimize rotation matrix (better conditioning)
   TURBO    =      0    0=normal 1=particle mesh
   IRESTART =      0    0=no restart 2=restart with 2 vectors
   NREBOOT  =      0    no. of reboots
   NMIN     =      0    reboot dimension
   EREF     =   0.00    reference energy to select bands
   IMIX   =      4    mixing-type and parameters
     AMIX     =   0.40;   BMIX     =  1.00
     AMIX_MAG =   1.60;   BMIX_MAG =  1.00
     AMIN     =   0.10
     WC   =   100.;   INIMIX=   1;  MIXPRE=   1;  MAXMIX= -45

 Intra band minimization:
   WEIMIN = 0.0000     energy-eigenvalue tresh-hold
   EBREAK =  0.31E-07  absolut break condition
   DEPER  =   0.30     relativ break condition  

   TIME   =   0.40     timestep for ELM

  volume/ion in A,a.u.               =    1689.35     11400.31
  Fermi-wavevector in a.u.,A,eV,Ry     =   0.137457  0.259757  0.257076  0.018895
  Thomas-Fermi vector in A             =   0.790566
 
 Write flags
   LWAVE        =      F    write WAVECAR
   LDOWNSAMPLE  =      F    k-point downsampling of WAVECAR
   LCHARG       =      F    write CHGCAR
   LVTOT        =      F    write LOCPOT, total local potential
   LVHAR        =      F    write LOCPOT, Hartree potential only
   LELF         =      F    write electronic localiz. function (ELF)
   LORBIT       =      0    0 simple, 1 ext, 2 COOP (PROOUT), +10 PAW based schemes


 Dipole corrections
   LMONO  =      F    monopole corrections only (constant potential shift)
   LDIPOL =      F    correct potential (dipole corrections)
   IDIPOL =      0    1-x, 2-y, 3-z, 4-all directions 
   EPSILON=  1.0000000 bulk dielectric constant

 Exchange correlation treatment:
   GGA     =    --    GGA type
   LEXCH   =     8    internal setting for exchange type
   LIBXC   =     F    Libxc                    
   VOSKOWN =     0    Vosko Wilk Nusair interpolation
   LHFCALC =     F    Hartree Fock is set to
   LHFONE  =     F    Hartree Fock one center treatment
   AEXX    =    0.0000 exact exchange contribution

 Linear response parameters
   LEPSILON=     F    determine dielectric tensor
   LRPA    =     F    only Hartree local field effects (RPA)
   LNABLA  =     F    use nabla operator in PAW spheres
   LVEL    =     F    velocity operator in full k-point grid
   CSHIFT  =0.1000    complex shift for real part using Kramers Kronig
   OMEGAMAX=  -1.0    maximum frequency
   DEG_THRESHOLD= 0.2000000E-02 threshold for treating states as degnerate
   RTIME   =   -0.100 relaxation time in fs
  (WPLASMAI=    0.000 imaginary part of plasma frequency in eV, 0.658/RTIME)
   DFIELD  = 0.0000000 0.0000000 0.0000000 field for delta impulse in time
 
  Optional k-point grid parameters
   LKPOINTS_OPT  =     F    use optional k-point grid
   KPOINTS_OPT_MODE=     1    mode for optional k-point grid
 
 Orbital magnetization related:
   ORBITALMAG=     F  switch on orbital magnetization
   LCHIMAG   =     F  perturbation theory with respect to B field
   DQ        =  0.001000  dq finite difference perturbation B field
   LLRAUG    =     F  two centre corrections for induced B field



--------------------------------------------------------------------------------------------------------


 Static calculation
 charge density and potential will be updated during run
 non-spin polarized calculation
 Variant of blocked Davidson
 Davidson routine will perform the subspace rotation
 perform sub-space diagonalisation
    after iterative eigenvector-optimisation
 modified Broyden-mixing scheme, WC =      100.0
 initial mixing is a Kerker type mixing with AMIX =  0.4000 and BMIX =      1.0000
 Hartree-type preconditioning will be used
 using additional bands            7
 reciprocal scheme for non local part
 calculate Harris-corrections to forces 
   (improved forces if not selfconsistent)
 use gradient corrections 
 use of overlap-Matrix (Vanderbilt PP)
 Gauss-broadening in eV      SIGMA  =   0.05


--------------------------------------------------------------------------------------------------------


  energy-cutoff  :      500.00
  volume of cell :     1689.35
      direct lattice vectors                 reciprocal lattice vectors
    11.909860967  0.000000000  0.000000000     0.083964036 -0.000000000 -0.000000000
     0.000000000 11.909860967  0.000000000     0.000000000  0.083964036 -0.000000000
     0.000000000  0.000000000 11.909860967     0.000000000  0.000000000  0.083964036

  length of vectors
    11.909860967 11.909860967 11.909860967     0.083964036  0.083964036  0.083964036


 
 k-points in units of 2pi/SCALE and weight: K-Spacing Value to Generate K-Mesh: 0.02
   0.00000000  0.00000000  0.00000000       1.000
 
 k-points in reciprocal lattice and weights: K-Spacing Value to Generate K-Mesh: 0.02
   0.00000000  0.00000000  0.00000000       1.000
 
 position of ions in fractional coordinates (direct lattice) 
   0.00000000  0.00000000  0.00000000
 
 position of ions in cartesian coordinates  (Angst):
   0.00000000  0.00000000  0.00000000
 


--------------------------------------------------------------------------------------------------------


 k-point   1 :   0.0000 0.0000 0.0000  plane waves:   42931

 maximum and minimum number of plane-waves per node :      5378     5359

 maximum number of plane-waves:     42931
 maximum index in each direction: 
   IXMAX=   21   IYMAX=   21   IZMAX=   21
   IXMIN=  -21   IYMIN=  -21   IZMIN=  -21


 parallel 3D FFT for wavefunctions:
    minimum data exchange during FFTs selected (reduces bandwidth)
 parallel 3D FFT for charge:
    minimum data exchange during FFTs selected (reduces bandwidth)


 total amount of memory used by VASP MPI-rank0    45143. kBytes
=======================================================================

   base      :      30000. kBytes
   nonl-proj :        301. kBytes
   fftplans  :       6150. kBytes
   grid      :       8605. kBytes
   one-center:          1. kBytes
   wavefun   :         86. kBytes
 
     INWAV:  cpu time      0.0000: real time      0.0000
 Broyden mixing: mesh for mixing (old mesh)
   NGX = 43   NGY = 43   NGZ = 43
  (NGX  =180   NGY  =180   NGZ  =180)
  gives a total of  79507 points

 initial charge density was supplied:
 charge density of overlapping atoms calculated
 number of electron       1.0000000 magnetization 
 keeping initial charge density in first step


--------------------------------------------------------------------------------------------------------


 Maximum index for augmentation-charges          193 (set IRDMAX)


--------------------------------------------------------------------------------------------------------


 First call to EWALD:  gamma=   0.149
 Maximum number of real-space cells 3x 3x 3
 Maximum number of reciprocal cells 3x 3x 3

    FEWALD:  cpu time      0.0029: real time      0.0030


--------------------------------------- Iteration      1(   1)  ---------------------------------------


    POTLOK:  cpu time      0.1515: real time      0.1599
    SETDIJ:  cpu time      0.0032: real time      0.0038
     EDDAV:  cpu time      0.0545: real time      0.0800
       DOS:  cpu time      0.0016: real time      0.0030
    --------------------------------------------
      LOOP:  cpu time      0.2108: real time      0.2467

 eigenvalue-minimisations  :    16
 total energy-change (2. order) : 0.7605808E+00  (-0.3389142E+01)
 number of electron       1.0000000 magnetization 
 augmentation part        1.0000000 magnetization 

 Free energy of the ion-electron system (eV)
  ---------------------------------------------------
  alpha Z        PSCENC =         0.00144207
  Ewald energy   TEWEN  =        -1.71523749
  -Hartree energ DENC   =        -6.17877025
  -exchange      EXHF   =         0.00000000
  -V(xc)+E(xc)   XCENC  =         1.88895412
  PAW double counting   =         2.13402744       -2.14290522
  entropy T*S    EENTRO =        -0.02820948
  eigenvalues    EBANDS =        -5.68515023
  atomic energy  EATOM  =        12.48642988
  Solvation  Ediel_sol  =         0.00000000
  ---------------------------------------------------
  free energy    TOTEN  =         0.76058084 eV

  energy without entropy =        0.78879032  energy(sigma->0) =        0.77468558


--------------------------------------------------------------------------------------------------------




--------------------------------------- Iteration      1(   2)  ---------------------------------------


     EDDAV:  cpu time      0.0717: real time      0.0760
       DOS:  cpu time      0.0003: real time      0.0003
    --------------------------------------------
      LOOP:  cpu time      0.0720: real time      0.0763

 eigenvalue-minimisations  :    32
 total energy-change (2. order) :-0.7873757E+00  (-0.7873757E+00)
 number of electron       1.0000000 magnetization 
 augmentation part        1.0000000 magnetization 

 Free energy of the ion-electron system (eV)
  ---------------------------------------------------
  alpha Z        PSCENC =         0.00144207
  Ewald energy   TEWEN  =        -1.71523749
  -Hartree energ DENC   =        -6.17877025
  -exchange      EXHF   =         0.00000000
  -V(xc)+E(xc)   XCENC  =         1.88895412
  PAW double counting   =         2.13402744       -2.14290522
  entropy T*S    EENTRO =        -0.02820948
  eigenvalues    EBANDS =        -6.47252595
  atomic energy  EATOM  =        12.48642988
  Solvation  Ediel_sol  =         0.00000000
  ---------------------------------------------------
  free energy    TOTEN  =        -0.02679489 eV

  energy without entropy =        0.00141459  energy(sigma->0) =       -0.01269015


--------------------------------------------------------------------------------------------------------




--------------------------------------- Iteration      1(   3)  ---------------------------------------


     EDDAV:  cpu time      0.0418: real time      0.0438
       DOS:  cpu time      0.0003: real time      0.0003
    --------------------------------------------
      LOOP:  cpu time      0.0421: real time      0.0441

 eigenvalue-minimisations  :    16
 total energy-change (2. order) :-0.1442328E-02  (-0.1442328E-02)
 number of electron       1.0000000 magnetization 
 augmentation part        1.0000000 magnetization 

 Free energy of the ion-electron system (eV)
  ---------------------------------------------------
  alpha Z        PSCENC =         0.00144207
  Ewald energy   TEWEN  =        -1.71523749
  -Hartree energ DENC   =        -6.17877025
  -exchange      EXHF   =         0.00000000
  -V(xc)+E(xc)   XCENC  =         1.88895412
  PAW double counting   =         2.13402744       -2.14290522
  entropy T*S    EENTRO =        -0.02820948
  eigenvalues    EBANDS =        -6.47396828
  atomic energy  EATOM  =        12.48642988
  Solvation  Ediel_sol  =         0.00000000
  ---------------------------------------------------
  free energy    TOTEN  =        -0.02823722 eV

  energy without entropy =       -0.00002774  energy(sigma->0) =       -0.01413248


--------------------------------------------------------------------------------------------------------




--------------------------------------- Iteration      1(   4)  ---------------------------------------


     EDDAV:  cpu time      0.0458: real time      0.0471
       DOS:  cpu time      0.0003: real time      0.0003
    --------------------------------------------
      LOOP:  cpu time      0.0461: real time      0.0474

 eigenvalue-minimisations  :    16
 total energy-change (2. order) :-0.3441407E-05  (-0.3441462E-05)
 number of electron       1.0000000 magnetization 
 augmentation part        1.0000000 magnetization 

 Free energy of the ion-electron system (eV)
  ---------------------------------------------------
  alpha Z        PSCENC =         0.00144207
  Ewald energy   TEWEN  =        -1.71523749
  -Hartree energ DENC   =        -6.17877025
  -exchange      EXHF   =         0.00000000
  -V(xc)+E(xc)   XCENC  =         1.88895412
  PAW double counting   =         2.13402744       -2.14290522
  entropy T*S    EENTRO =        -0.02820948
  eigenvalues    EBANDS =        -6.47397172
  atomic energy  EATOM  =        12.48642988
  Solvation  Ediel_sol  =         0.00000000
  ---------------------------------------------------
  free energy    TOTEN  =        -0.02824066 eV

  energy without entropy =       -0.00003118  energy(sigma->0) =       -0.01413592


--------------------------------------------------------------------------------------------------------




--------------------------------------- Iteration      1(   5)  ---------------------------------------


     EDDAV:  cpu time      0.0424: real time      0.0446
       DOS:  cpu time      0.0003: real time      0.0003
    CHARGE:  cpu time      0.2363: real time      0.2385
    MIXING:  cpu time      0.0041: real time      0.0041
    --------------------------------------------
      LOOP:  cpu time      0.2831: real time      0.2876

 eigenvalue-minimisations  :    16
 total energy-change (2. order) :-0.1690338E-07  (-0.1731522E-07)
 number of electron       0.9999999 magnetization 
 augmentation part        0.0135602 magnetization 

 Broyden mixing:
  rms(total) = 0.19532E-02    rms(broyden)= 0.18156E-02
  rms(prec ) = 0.18429E-02
  weight for this iteration     100.00

 Free energy of the ion-electron system (eV)
  ---------------------------------------------------
  alpha Z        PSCENC =         0.00144207
  Ewald energy   TEWEN  =        -1.71523749
  -Hartree energ DENC   =        -6.17877025
  -exchange      EXHF   =         0.00000000
  -V(xc)+E(xc)   XCENC  =         1.88895412
  PAW double counting   =         2.13402744       -2.14290522
  entropy T*S    EENTRO =        -0.02820948
  eigenvalues    EBANDS =        -6.47397174
  atomic energy  EATOM  =        12.48642988
  Solvation  Ediel_sol  =         0.00000000
  ---------------------------------------------------
  free energy    TOTEN  =        -0.02824067 eV

  energy without entropy =       -0.00003119  energy(sigma->0) =       -0.01413593


--------------------------------------------------------------------------------------------------------




--------------------------------------- Iteration      1(   6)  ---------------------------------------


    POTLOK:  cpu time      0.1088: real time      0.1108
    SETDIJ:  cpu time      0.0017: real time      0.0018
     EDDAV:  cpu time      0.0452: real time      0.0461
       DOS:  cpu time      0.0003: real time      0.0003
    CHARGE:  cpu time      0.2013: real time      0.2028
    MIXING:  cpu time      0.0037: real time      0.0046
    --------------------------------------------
      LOOP:  cpu time      0.3610: real time      0.3664

 eigenvalue-minimisations  :    16
 total energy-change (2. order) :-0.7532440E-05  (-0.4480276E-06)
 number of electron       0.9999999 magnetization 
 augmentation part        0.0135605 magnetization 

 Broyden mixing:
  rms(total) = 0.11152E-02    rms(broyden)= 0.11053E-02
  rms(prec ) = 0.11213E-02
  weight for this iteration     100.00

 eigenvalues of (default mixing * dielectric matrix)
  average eigenvalue GAMMA=   2.5542
  2.5542

 Free energy of the ion-electron system (eV)
  ---------------------------------------------------
  alpha Z        PSCENC =         0.00144207
  Ewald energy   TEWEN  =        -1.71523749
  -Hartree energ DENC   =        -6.17819726
  -exchange      EXHF   =         0.00000000
  -V(xc)+E(xc)   XCENC  =         1.88885820
  PAW double counting   =         2.14740721       -2.15626851
  entropy T*S    EENTRO =        -0.02820948
  eigenvalues    EBANDS =        -6.47447282
  atomic energy  EATOM  =        12.48642988
  Solvation  Ediel_sol  =         0.00000000
  ---------------------------------------------------
  free energy    TOTEN  =        -0.02824821 eV

  energy without entropy =       -0.00003873  energy(sigma->0) =       -0.01414347


--------------------------------------------------------------------------------------------------------




--------------------------------------- Iteration      1(   7)  ---------------------------------------


    POTLOK:  cpu time      0.1109: real time      0.1127
    SETDIJ:  cpu time      0.0017: real time      0.0017
     EDDAV:  cpu time      0.0416: real time      0.0422
       DOS:  cpu time      0.0003: real time      0.0003
    CHARGE:  cpu time      0.1967: real time      0.1990
    MIXING:  cpu time      0.0035: real time      0.0035
    --------------------------------------------
      LOOP:  cpu time      0.3546: real time      0.3595

 eigenvalue-minimisations  :    16
 total energy-change (2. order) :-0.3720408E-04  (-0.6331534E-06)
 number of electron       0.9999999 magnetization 
 augmentation part        0.0135602 magnetization 

 Broyden mixing:
  rms(total) = 0.39934E-04    rms(broyden)= 0.22532E-04
  rms(prec ) = 0.24426E-04
  weight for this iteration     100.00
  WARNING: grid for Broyden might be to small

 eigenvalues of (default mixing * dielectric matrix)
  average eigenvalue GAMMA=   1.9297
  1.2770  2.5823

 Free energy of the ion-electron system (eV)
  ---------------------------------------------------
  alpha Z        PSCENC =         0.00144207
  Ewald energy   TEWEN  =        -1.71523749
  -Hartree energ DENC   =        -6.17745048
  -exchange      EXHF   =         0.00000000
  -V(xc)+E(xc)   XCENC  =         1.88870961
  PAW double counting   =         2.16847822       -2.17731510
  entropy T*S    EENTRO =        -0.02820948
  eigenvalues    EBANDS =        -6.47513264
  atomic energy  EATOM  =        12.48642988
  Solvation  Ediel_sol  =         0.00000000
  ---------------------------------------------------
  free energy    TOTEN  =        -0.02828541 eV

  energy without entropy =       -0.00007593  energy(sigma->0) =       -0.01418067


--------------------------------------------------------------------------------------------------------




--------------------------------------- Iteration      1(   8)  ---------------------------------------


    POTLOK:  cpu time      0.1107: real time      0.1121
    SETDIJ:  cpu time      0.0024: real time      0.0026
     EDDAV:  cpu time      0.0416: real time      0.0455
       DOS:  cpu time      0.0002: real time      0.0003
    --------------------------------------------
      LOOP:  cpu time      0.1548: real time      0.1604

 eigenvalue-minimisations  :    16
 total energy-change (2. order) :-0.5803190E-06  (-0.2305040E-08)
 number of electron       0.9999999 magnetization 
 augmentation part        0.0135602 magnetization 

 Free energy of the ion-electron system (eV)
  ---------------------------------------------------
  alpha Z        PSCENC =         0.00144207
  Ewald energy   TEWEN  =        -1.71523749
  -Hartree energ DENC   =        -6.17745552
  -exchange      EXHF   =         0.00000000
  -V(xc)+E(xc)   XCENC  =         1.88871180
  PAW double counting   =         2.16877435       -2.17761142
  entropy T*S    EENTRO =        -0.02820948
  eigenvalues    EBANDS =        -6.47513018
  atomic energy  EATOM  =        12.48642988
  Solvation  Ediel_sol  =         0.00000000
  ---------------------------------------------------
  free energy    TOTEN  =        -0.02828599 eV

  energy without entropy =       -0.00007651  energy(sigma->0) =       -0.01418125


--------------------------------------------------------------------------------------------------------




 average (electrostatic) potential at core
  the test charge radii are     0.5201
  (the norm of the test charge is              1.0000)
       1 -42.4460
 
 
 
 E-fermi :  -6.4751     XC(G=0):  -0.2685     alpha+bet : -0.0163

 Fermi energy:        -6.4751301779

 k-point     1 :       0.0000    0.0000    0.0000
  band No.  band energies     occupation 
      1      -6.4751      1.00000
      2      -0.1321      0.00000
      3       0.6343      0.00000
      4       0.6343      0.00000
      5       0.6343      0.00000
      6       0.9498      0.00000
      7       0.9580      0.00000
      8       0.9580      0.00000


--------------------------------------------------------------------------------------------------------


 soft charge-density along one line, spin component           1
         0         1         2         3         4         5         6         7         8         9
 total charge-density along one line
 
 pseudopotential strength for first ion, spin component:           1
 -2.367  -4.080   0.000  -0.000  -0.000
 -4.080  -6.949   0.000  -0.000  -0.000
  0.000   0.000  -0.347   0.000   0.000
 -0.000  -0.000   0.000  -0.347   0.000
 -0.000  -0.000   0.000   0.000  -0.347
 total augmentation occupancy for first ion, spin component:           1
  1.034  -0.010   0.000   0.000   0.000
 -0.010   0.000   0.000   0.000   0.000
  0.000   0.000   0.000   0.000   0.000
  0.000   0.000   0.000   0.000   0.000
  0.000   0.000   0.000   0.000   0.000


------------------------ aborting loop because EDIFF is reached ----------------------------------------


    CHARGE:  cpu time      0.1963: real time      0.2141
    FORLOC:  cpu time      0.0023: real time      0.0025
    FORNL :  cpu time      0.0006: real time      0.0007
    STRESS:  cpu time      0.0125: real time      0.0136
    FORHAR:  cpu time      0.0265: real time      0.0290
    MIXING:  cpu time      0.0035: real time      0.0038
    OFIELD:  cpu time      0.0002: real time      0.0002

  FORCE on cell =-STRESS in cart. coord.  units (eV):
  Direction    XX          YY          ZZ          XY          YZ          ZX
  --------------------------------------------------------------------------------------
  Alpha Z     0.00144     0.00144     0.00144
  Ewald      -0.57175    -0.57175    -0.57175     0.00000     0.00000     0.00000
  Hartree     2.05914     2.05914     2.05914    -0.00000    -0.00000    -0.00000
  E(xc)      -2.16689    -2.16689    -2.16689     0.00000     0.00000    -0.00000
  Local      -5.16150    -5.16150    -5.16150    -0.00000    -0.00000    -0.00000
  n-local    -1.67497    -1.67497    -1.67497    -0.00000    -0.00000     0.00000
  augment     0.09032     0.09032     0.09032     0.00000     0.00000     0.00000
  Kinetic     7.41306     7.41306     7.41306     0.00000    -0.00000    -0.00000
  Fock        0.00000     0.00000     0.00000     0.00000     0.00000     0.00000
  -------------------------------------------------------------------------------------
  Total      -0.01114    -0.01114    -0.01114    -0.00000    -0.00000    -0.00000
  in kB      -0.01057    -0.01057    -0.01057    -0.00000    -0.00000    -0.00000
  external pressure =       -0.01 kB  Pullay stress =        0.00 kB


 VOLUME and BASIS-vectors are now :
 -----------------------------------------------------------------------------
  energy-cutoff  :      500.00
  volume of cell :     1689.35
      direct lattice vectors                 reciprocal lattice vectors
    11.909860967  0.000000000  0.000000000     0.083964036 -0.000000000 -0.000000000
     0.000000000 11.909860967  0.000000000     0.000000000  0.083964036 -0.000000000
     0.000000000  0.000000000 11.909860967     0.000000000  0.000000000  0.083964036

  length of vectors
    11.909860967 11.909860967 11.909860967     0.083964036  0.083964036  0.083964036


 FORCES acting on ions
    electron-ion (+dipol)            ewald-force                    non-local-force                 convergence-correction
 -----------------------------------------------------------------------------------------------
   0.200E-16 0.136E-16 0.164E-16   -.728E-18 -.182E-19 -.783E-18   -.822E-27 -.113E-25 -.722E-26   0.221E-15 0.619E-16 -.131E-15
 -----------------------------------------------------------------------------------------------
   0.200E-16 0.136E-16 0.164E-16   -.728E-18 -.182E-19 -.783E-18   -.822E-27 -.113E-25 -.722E-26   0.221E-15 0.619E-16 -.131E-15
 
 
 POSITION                                       TOTAL-FORCE (eV/Angst)
 -----------------------------------------------------------------------------------
      0.00000      0.00000      0.00000        -0.000000      0.000000     -0.000000
 -----------------------------------------------------------------------------------
    total drift:                                0.000000      0.000000     -0.000000


--------------------------------------------------------------------------------------------------------



  FREE ENERGIE OF THE ION-ELECTRON SYSTEM (eV)
  ---------------------------------------------------
  free  energy   TOTEN  =        -0.02828599 eV

  energy  without entropy=       -0.00007651  energy(sigma->0) =       -0.01418125
 


--------------------------------------------------------------------------------------------------------


    POTLOK:  cpu time      0.1133: real time      0.1240


--------------------------------------------------------------------------------------------------------


     LOOP+:  cpu time      1.8858: real time      1.9969
    4ORBIT:  cpu time      0.0000: real time      0.0000

 total amount of memory used by VASP MPI-rank0    45143. kBytes
=======================================================================

   base      :      30000. kBytes
   nonl-proj :        301. kBytes
   fftplans  :       6150. kBytes
   grid      :       8605. kBytes
   one-center:          1. kBytes
   wavefun   :         86. kBytes
 
  
  
 General timing and accounting informations for this job:
 ========================================================
  
                  Total CPU time used (sec):        3.380
                            User time (sec):        2.586
                          System time (sec):        0.794
                         Elapsed time (sec):        4.130
  
                   Maximum memory used (kb):      169912.
                   Average memory used (kb):          N/A
  
                          Minor page faults:        35428
                          Major page faults:         1935
                 Voluntary context switches:          491
