 vasp.6.3.0 20Jan22 (build Oct 14 2024 11:24:38) complex                        
  
 executed on             LinuxIFC date 2025.05.01  23:17:53
 running on   64 total cores
 distrk:  each k-point on   64 cores,    1 groups
 distr:  one band on NCORE=   8 cores,    8 groups


--------------------------------------------------------------------------------------------------------


 INCAR:
   ISTART = 0            (Read existing wavefunction
   ISPIN = 1            (Non-Spin polarised DFT)
   LREAL = .FALSE.       (Projection operators: automatic)
   ENCUT = 500          (Cut-off energy for plane wave basis set, in eV)
   PREC = Accurate     (Precision level)
   LWAVE = .FALSE.       (Write WAVECAR or not)
   LCHARG = .FALSE.       (Write CHGCAR or not)
   NSW = 0
   IBRION = -1
   ISMEAR = 0            (gaussian smearing method)
   SIGMA = 0.05         (please check the width of the smearing)
   NELM = 60           (Max electronic SCF steps)
   EDIFF = 1E-06        (SCF energy convergence
   NCORE = 8             (square root of total cores)

 POTCAR:    PAW_PBE Nb_sv 25May2007               
 POTCAR:    PAW_PBE Nb_sv 25May2007               
   VRHFIN =Nb: 4p5s4d                                                                               
   LEXCH  = PE                                                                                      
   EATOM  =  1555.1913 eV,  114.3033 Ry                                                             
                                                                                                    
   TITEL  = PAW_PBE Nb_sv 25May2007                                                                 
   LULTRA =        F    use ultrasoft PP ?                                                          
   IUNSCR =        1    unscreen: 0-lin 1-nonlin 2-no                                               
   RPACOR =    1.800    partial core radius                                                         
   POMASS =   92.910; ZVAL   =   13.000    mass and valenz                                          
   RCORE  =    2.400    outmost cutoff radius                                                       
   RWIGS  =    2.400; RWIGS  =    1.270    wigner-seitz radius (au A)                               
   ENMAX  =  293.235; ENMIN  =  219.927 eV                                                          
   ICORE  =        3    local potential                                                             
   LCOR   =        T    correct aug charges                                                         
   LPAW   =        T    paw PP                                                                      
   EAUG   =  455.659                                                                                
   DEXC   =    0.000                                                                                
   RMAX   =    2.456    core radius for proj-oper                                                   
   RAUG   =    1.300    factor for augmentation sphere                                              
   RDEP   =    2.451    radius for radial grids                                                     
   RDEPT  =    1.956    core radius for aug-charge                                                  
                                                                                                    
   Atomic configuration                                                                             
   11 entries                                                                                       
     n  l   j            E        occ.                                                              
     1  0  0.50    -18805.2457   2.0000                                                             
     2  0  0.50     -2630.2869   2.0000                                                             
     2  1  1.50     -2348.4046   6.0000                                                             
     3  0  0.50      -438.8757   2.0000                                                             
     3  1  1.50      -346.7588   6.0000                                                             
     3  2  2.50      -196.2560  10.0000                                                             
     4  0  0.50       -58.3859   2.0000                                                             
     5  0  0.50        -3.9816   1.0000                                                             
     4  1  1.50       -34.5141   6.0000                                                             
     4  2  2.50        -3.0408   4.0000                                                             
     4  3  2.50        -1.3606   0.0000                                                             
   Description                                                                                      
     l       E           TYP  RCUT    TYP  RCUT                                                     
     0    -58.3859094     23  2.200                                                                 
     0     -3.9816262     23  2.200                                                                 
     1    -34.5140738     23  2.200                                                                 
     1     13.6058260     23  2.200                                                                 
     2     -3.0408010     23  2.200                                                                 
     2     -0.1283038     23  2.200                                                                 
     3     -1.3605826     23  2.400                                                                 
  local pseudopotential read in
  partial core-charges read in
  partial kinetic energy density read in
  atomic valenz-charges read in
  non local Contribution for L=           0  read in
    real space projection operators read in
  non local Contribution for L=           0  read in
    real space projection operators read in
  non local Contribution for L=           1  read in
    real space projection operators read in
  non local Contribution for L=           1  read in
    real space projection operators read in
  non local Contribution for L=           2  read in
    real space projection operators read in
  non local Contribution for L=           2  read in
    real space projection operators read in
    PAW grid and wavefunctions read in
 
   number of l-projection  operators is LMAX  =           6
   number of lm-projection operators is LMMAX =          18
 
  PAW_PBE Nb_sv 25May2007               :
 energy of atom  1       EATOM=-1555.1913
 kinetic energy error for atom=    0.0069 (will be added to EATOM!!)
 
 
 POSCAR: Nb bcc
  positions in direct lattice
  No initial velocities read in
 exchange correlation table for  LEXCH =        8
   RHO(1)=    0.500       N(1)  =     2000
   RHO(2)=  100.500       N(2)  =     4000
 


--------------------------------------------------------------------------------------------------------


 ion  position               nearest neighbor table
   1  0.000  0.000  0.000-
 
  LATTYP: Found a body centered cubic cell.
 ALAT       =     3.3177320000
  
  Lattice vectors:
  
 A1 = (  -1.6588660000,   1.6588660000,   1.6588660000)
 A2 = (   1.6588660000,  -1.6588660000,   1.6588660000)
 A3 = (   1.6588660000,   1.6588660000,  -1.6588660000)


Analysis of symmetry for initial positions (statically):
=====================================================================
 Subroutine PRICEL returns:
 Original cell was already a primitive cell.
 

 Routine SETGRP: Setting up the symmetry group for a 
 body centered cubic supercell.


 Subroutine GETGRP returns: Found 48 space group operations
 (whereof 48 operations were pure point group operations)
 out of a pool of 48 trial point group operations.


The static configuration has the point symmetry O_h .


Analysis of symmetry for dynamics (positions and initial velocities):
=====================================================================
 Subroutine PRICEL returns:
 Original cell was already a primitive cell.
 

 Routine SETGRP: Setting up the symmetry group for a 
 body centered cubic supercell.


 Subroutine GETGRP returns: Found 48 space group operations
 (whereof 48 operations were pure point group operations)
 out of a pool of 48 trial point group operations.


The dynamic configuration has the point symmetry O_h .


 Subroutine INISYM returns: Found 48 space group operations
 (whereof 48 operations are pure point group operations),
 and found     1 'primitive' translations


----------------------------------------------------------------------------------------

                                     Primitive cell                                     

  volume of cell :      18.2597

  direct lattice vectors                    reciprocal lattice vectors
    -1.658866000  1.658866000  1.658866000    -0.000000000  0.301410723  0.301410723
     1.658866000 -1.658866000  1.658866000     0.301410723 -0.000000000  0.301410723
     1.658866000  1.658866000 -1.658866000     0.301410723  0.301410723 -0.000000000

  length of vectors
     2.873240195  2.873240195  2.873240195     0.426259132  0.426259132  0.426259132

  position of ions in fractional coordinates (direct lattice)
     0.000000000  0.000000000  0.000000000

  ion indices of the primitive-cell ions
   primitive index   ion index
                 1           1

----------------------------------------------------------------------------------------

 
 
 KPOINTS: K-Spacing Value to Generate K-Mesh: 0.02

Automatic generation of k-mesh.
 Grid dimensions read from file:
 generate k-points for:   21   21   21

 Generating k-lattice:

  Cartesian coordinates                     Fractional coordinates (reciprocal lattice)
    -0.000000000  0.014352892  0.014352892     0.047619048  0.000000000 -0.000000000
     0.014352892 -0.000000000  0.014352892     0.000000000  0.047619048 -0.000000000
     0.014352892  0.014352892 -0.000000000    -0.000000000  0.000000000  0.047619048

  Length of vectors
     0.020298054  0.020298054  0.020298054

  Shift w.r.t. Gamma in fractional coordinates (k-lattice)
     0.000000000  0.000000000  0.000000000

 
 Subroutine IBZKPT returns following result:
 ===========================================
 
 Found    286 irreducible k-points:
 
 Following reciprocal coordinates:
            Coordinates               Weight
  0.000000  0.000000  0.000000      1.000000
  0.047619  0.000000 -0.000000     12.000000
  0.095238  0.000000  0.000000     12.000000
  0.142857 -0.000000  0.000000     12.000000
  0.190476 -0.000000  0.000000     12.000000
  0.238095 -0.000000 -0.000000     12.000000
  0.285714  0.000000  0.000000     12.000000
  0.333333  0.000000  0.000000     12.000000
  0.380952 -0.000000  0.000000     12.000000
  0.428571  0.000000 -0.000000     12.000000
  0.476190 -0.000000  0.000000     12.000000
  0.047619  0.047619 -0.000000     24.000000
  0.095238  0.047619  0.000000     48.000000
  0.142857  0.047619  0.000000     48.000000
  0.190476  0.047619 -0.000000     48.000000
  0.238095  0.047619 -0.000000     48.000000
  0.285714  0.047619  0.000000     48.000000
  0.333333  0.047619  0.000000     48.000000
  0.380952  0.047619 -0.000000     48.000000
  0.428571  0.047619 -0.000000     48.000000
  0.476190  0.047619  0.000000     24.000000
  0.095238  0.095238  0.000000     24.000000
  0.142857  0.095238 -0.000000     48.000000
  0.190476  0.095238  0.000000     48.000000
  0.238095  0.095238  0.000000     48.000000
  0.285714  0.095238  0.000000     48.000000
  0.333333  0.095238 -0.000000     48.000000
  0.380952  0.095238  0.000000     48.000000
  0.428571  0.095238  0.000000     48.000000
  0.142857  0.142857 -0.000000     24.000000
  0.190476  0.142857  0.000000     48.000000
  0.238095  0.142857  0.000000     48.000000
  0.285714  0.142857 -0.000000     48.000000
  0.333333  0.142857 -0.000000     48.000000
  0.380952  0.142857  0.000000     48.000000
  0.428571  0.142857  0.000000     24.000000
  0.190476  0.190476  0.000000     24.000000
  0.238095  0.190476 -0.000000     48.000000
  0.285714  0.190476  0.000000     48.000000
  0.333333  0.190476  0.000000     48.000000
  0.380952  0.190476  0.000000     48.000000
  0.238095  0.238095 -0.000000     24.000000
  0.285714  0.238095  0.000000     48.000000
  0.333333  0.238095  0.000000     48.000000
  0.380952  0.238095 -0.000000     24.000000
  0.285714  0.285714  0.000000     24.000000
  0.333333  0.285714 -0.000000     48.000000
  0.333333  0.333333 -0.000000      8.000000
  0.047619  0.047619  0.047619      8.000000
  0.095238  0.047619  0.047619     24.000000
  0.142857  0.047619  0.047619     24.000000
  0.190476  0.047619  0.047619     24.000000
  0.238095  0.047619  0.047619     24.000000
  0.285714  0.047619  0.047619     24.000000
  0.333333  0.047619  0.047619     24.000000
  0.380952  0.047619  0.047619     24.000000
  0.428571  0.047619  0.047619     24.000000
 -0.047619  0.047619  0.047619      6.000000
  0.095238  0.095238  0.047619     24.000000
  0.142857  0.095238  0.047619     48.000000
  0.190476  0.095238  0.047619     48.000000
  0.238095  0.095238  0.047619     48.000000
  0.285714  0.095238  0.047619     48.000000
  0.333333  0.095238  0.047619     48.000000
  0.380952  0.095238  0.047619     48.000000
  0.428571  0.095238  0.047619     24.000000
 -0.095238  0.095238  0.047619     24.000000
  0.142857  0.142857  0.047619     24.000000
  0.190476  0.142857  0.047619     48.000000
  0.238095  0.142857  0.047619     48.000000
  0.285714  0.142857  0.047619     48.000000
  0.333333  0.142857  0.047619     48.000000
  0.380952  0.142857  0.047619     48.000000
 -0.142857  0.142857  0.047619     24.000000
 -0.095238  0.142857  0.047619     24.000000
  0.190476  0.190476  0.047619     24.000000
  0.238095  0.190476  0.047619     48.000000
  0.285714  0.190476  0.047619     48.000000
  0.333333  0.190476  0.047619     48.000000
  0.380952  0.190476  0.047619     24.000000
 -0.190476  0.190476  0.047619     24.000000
 -0.142857  0.190476  0.047619     48.000000
  0.238095  0.238095  0.047619     24.000000
  0.285714  0.238095  0.047619     48.000000
  0.333333  0.238095  0.047619     48.000000
 -0.238095  0.238095  0.047619     24.000000
 -0.190476  0.238095  0.047619     48.000000
 -0.142857  0.238095  0.047619     24.000000
  0.285714  0.285714  0.047619     24.000000
  0.333333  0.285714  0.047619     24.000000
 -0.285714  0.285714  0.047619     24.000000
 -0.238095  0.285714  0.047619     48.000000
 -0.190476  0.285714  0.047619     48.000000
 -0.333333  0.333333  0.047619     24.000000
 -0.285714  0.333333  0.047619     48.000000
 -0.238095  0.333333  0.047619     48.000000
 -0.190476  0.333333  0.047619     24.000000
 -0.380952  0.380952  0.047619     24.000000
 -0.333333  0.380952  0.047619     48.000000
 -0.285714  0.380952  0.047619     48.000000
 -0.238095  0.380952  0.047619     48.000000
 -0.428571  0.428571  0.047619     24.000000
 -0.380952  0.428571  0.047619     48.000000
 -0.333333  0.428571  0.047619     48.000000
 -0.285714  0.428571  0.047619     48.000000
 -0.238095  0.428571  0.047619     24.000000
 -0.476190  0.476190  0.047619     24.000000
 -0.428571  0.476190  0.047619     48.000000
 -0.380952  0.476190  0.047619     48.000000
 -0.333333  0.476190  0.047619     48.000000
 -0.285714  0.476190  0.047619     48.000000
 -0.476190 -0.476190  0.047619     24.000000
 -0.428571 -0.476190  0.047619     48.000000
 -0.380952 -0.476190  0.047619     48.000000
 -0.333333 -0.476190  0.047619     48.000000
 -0.285714 -0.476190  0.047619     24.000000
 -0.428571 -0.428571  0.047619     24.000000
 -0.380952 -0.428571  0.047619     48.000000
 -0.333333 -0.428571  0.047619     48.000000
 -0.380952 -0.380952  0.047619     24.000000
 -0.333333 -0.380952  0.047619     24.000000
  0.095238  0.095238  0.095238      8.000000
  0.142857  0.095238  0.095238     24.000000
  0.190476  0.095238  0.095238     24.000000
  0.238095  0.095238  0.095238     24.000000
  0.285714  0.095238  0.095238     24.000000
  0.333333  0.095238  0.095238     24.000000
  0.380952  0.095238  0.095238     24.000000
 -0.095238  0.095238  0.095238      6.000000
  0.142857  0.142857  0.095238     24.000000
  0.190476  0.142857  0.095238     48.000000
  0.238095  0.142857  0.095238     48.000000
  0.285714  0.142857  0.095238     48.000000
  0.333333  0.142857  0.095238     48.000000
  0.380952  0.142857  0.095238     24.000000
 -0.142857  0.142857  0.095238     24.000000
  0.190476  0.190476  0.095238     24.000000
  0.238095  0.190476  0.095238     48.000000
  0.285714  0.190476  0.095238     48.000000
  0.333333  0.190476  0.095238     48.000000
 -0.190476  0.190476  0.095238     24.000000
 -0.142857  0.190476  0.095238     24.000000
  0.238095  0.238095  0.095238     24.000000
  0.285714  0.238095  0.095238     48.000000
  0.333333  0.238095  0.095238     24.000000
 -0.238095  0.238095  0.095238     24.000000
 -0.190476  0.238095  0.095238     48.000000
  0.285714  0.285714  0.095238     24.000000
 -0.285714  0.285714  0.095238     24.000000
 -0.238095  0.285714  0.095238     48.000000
 -0.190476  0.285714  0.095238     24.000000
 -0.333333  0.333333  0.095238     24.000000
 -0.285714  0.333333  0.095238     48.000000
 -0.238095  0.333333  0.095238     48.000000
 -0.380952  0.380952  0.095238     24.000000
 -0.333333  0.380952  0.095238     48.000000
 -0.285714  0.380952  0.095238     48.000000
 -0.238095  0.380952  0.095238     24.000000
 -0.428571  0.428571  0.095238     24.000000
 -0.380952  0.428571  0.095238     48.000000
 -0.333333  0.428571  0.095238     48.000000
 -0.285714  0.428571  0.095238     48.000000
 -0.476190  0.476190  0.095238     24.000000
 -0.428571  0.476190  0.095238     48.000000
 -0.380952  0.476190  0.095238     48.000000
 -0.333333  0.476190  0.095238     48.000000
 -0.285714  0.476190  0.095238     24.000000
 -0.476190 -0.476190  0.095238     24.000000
 -0.428571 -0.476190  0.095238     48.000000
 -0.380952 -0.476190  0.095238     48.000000
 -0.333333 -0.476190  0.095238     48.000000
 -0.428571 -0.428571  0.095238     24.000000
 -0.380952 -0.428571  0.095238     48.000000
 -0.333333 -0.428571  0.095238     24.000000
 -0.380952 -0.380952  0.095238     24.000000
  0.142857  0.142857  0.142857      8.000000
  0.190476  0.142857  0.142857     24.000000
  0.238095  0.142857  0.142857     24.000000
  0.285714  0.142857  0.142857     24.000000
  0.333333  0.142857  0.142857     24.000000
 -0.142857  0.142857  0.142857      6.000000
  0.190476  0.190476  0.142857     24.000000
  0.238095  0.190476  0.142857     48.000000
  0.285714  0.190476  0.142857     48.000000
  0.333333  0.190476  0.142857     24.000000
 -0.190476  0.190476  0.142857     24.000000
  0.238095  0.238095  0.142857     24.000000
  0.285714  0.238095  0.142857     48.000000
 -0.238095  0.238095  0.142857     24.000000
 -0.190476  0.238095  0.142857     24.000000
  0.285714  0.285714  0.142857      8.000000
 -0.285714  0.285714  0.142857     24.000000
 -0.238095  0.285714  0.142857     48.000000
 -0.333333  0.333333  0.142857     24.000000
 -0.285714  0.333333  0.142857     48.000000
 -0.238095  0.333333  0.142857     24.000000
 -0.380952  0.380952  0.142857     24.000000
 -0.333333  0.380952  0.142857     48.000000
 -0.285714  0.380952  0.142857     48.000000
 -0.428571  0.428571  0.142857     24.000000
 -0.380952  0.428571  0.142857     48.000000
 -0.333333  0.428571  0.142857     48.000000
 -0.285714  0.428571  0.142857     24.000000
 -0.476190  0.476190  0.142857     24.000000
 -0.428571  0.476190  0.142857     48.000000
 -0.380952  0.476190  0.142857     48.000000
 -0.333333  0.476190  0.142857     48.000000
 -0.476190 -0.476190  0.142857     24.000000
 -0.428571 -0.476190  0.142857     48.000000
 -0.380952 -0.476190  0.142857     48.000000
 -0.333333 -0.476190  0.142857     24.000000
 -0.428571 -0.428571  0.142857     24.000000
 -0.380952 -0.428571  0.142857     48.000000
 -0.380952 -0.380952  0.142857      8.000000
  0.190476  0.190476  0.190476      8.000000
  0.238095  0.190476  0.190476     24.000000
  0.285714  0.190476  0.190476     24.000000
 -0.190476  0.190476  0.190476      6.000000
  0.238095  0.238095  0.190476     24.000000
  0.285714  0.238095  0.190476     24.000000
 -0.238095  0.238095  0.190476     24.000000
 -0.285714  0.285714  0.190476     24.000000
 -0.238095  0.285714  0.190476     24.000000
 -0.333333  0.333333  0.190476     24.000000
 -0.285714  0.333333  0.190476     48.000000
 -0.380952  0.380952  0.190476     24.000000
 -0.333333  0.380952  0.190476     48.000000
 -0.285714  0.380952  0.190476     24.000000
 -0.428571  0.428571  0.190476     24.000000
 -0.380952  0.428571  0.190476     48.000000
 -0.333333  0.428571  0.190476     48.000000
 -0.476190  0.476190  0.190476     24.000000
 -0.428571  0.476190  0.190476     48.000000
 -0.380952  0.476190  0.190476     48.000000
 -0.333333  0.476190  0.190476     24.000000
 -0.476190 -0.476190  0.190476     24.000000
 -0.428571 -0.476190  0.190476     48.000000
 -0.380952 -0.476190  0.190476     48.000000
 -0.428571 -0.428571  0.190476     24.000000
 -0.380952 -0.428571  0.190476     24.000000
  0.238095  0.238095  0.238095      8.000000
 -0.238095  0.238095  0.238095      6.000000
 -0.285714  0.285714  0.238095     24.000000
 -0.333333  0.333333  0.238095     24.000000
 -0.285714  0.333333  0.238095     24.000000
 -0.380952  0.380952  0.238095     24.000000
 -0.333333  0.380952  0.238095     48.000000
 -0.428571  0.428571  0.238095     24.000000
 -0.380952  0.428571  0.238095     48.000000
 -0.333333  0.428571  0.238095     24.000000
 -0.476190  0.476190  0.238095     24.000000
 -0.428571  0.476190  0.238095     48.000000
 -0.380952  0.476190  0.238095     48.000000
 -0.476190 -0.476190  0.238095     24.000000
 -0.428571 -0.476190  0.238095     48.000000
 -0.380952 -0.476190  0.238095     24.000000
 -0.428571 -0.428571  0.238095     24.000000
 -0.285714  0.285714  0.285714      6.000000
 -0.333333  0.333333  0.285714     24.000000
 -0.380952  0.380952  0.285714     24.000000
 -0.333333  0.380952  0.285714     24.000000
 -0.428571  0.428571  0.285714     24.000000
 -0.380952  0.428571  0.285714     48.000000
 -0.476190  0.476190  0.285714     24.000000
 -0.428571  0.476190  0.285714     48.000000
 -0.380952  0.476190  0.285714     24.000000
 -0.476190 -0.476190  0.285714     24.000000
 -0.428571 -0.476190  0.285714     48.000000
 -0.428571 -0.428571  0.285714      8.000000
 -0.333333  0.333333  0.333333      6.000000
 -0.380952  0.380952  0.333333     24.000000
 -0.428571  0.428571  0.333333     24.000000
 -0.380952  0.428571  0.333333     24.000000
 -0.476190  0.476190  0.333333     24.000000
 -0.428571  0.476190  0.333333     48.000000
 -0.476190 -0.476190  0.333333     24.000000
 -0.428571 -0.476190  0.333333     24.000000
 -0.380952  0.380952  0.380952      6.000000
 -0.428571  0.428571  0.380952     24.000000
 -0.476190  0.476190  0.380952     24.000000
 -0.428571  0.476190  0.380952     24.000000
 -0.476190 -0.476190  0.380952     24.000000
 -0.428571  0.428571  0.428571      6.000000
 -0.476190  0.476190  0.428571     24.000000
 -0.476190 -0.476190  0.428571      8.000000
 -0.476190  0.476190  0.476190      6.000000
 
 Following cartesian coordinates:
            Coordinates               Weight
  0.000000  0.000000  0.000000      1.000000
 -0.000000  0.014353  0.014353     12.000000
  0.000000  0.028706  0.028706     12.000000
  0.000000  0.043059  0.043059     12.000000
  0.000000  0.057412  0.057412     12.000000
 -0.000000  0.071764  0.071764     12.000000
  0.000000  0.086117  0.086117     12.000000
  0.000000  0.100470  0.100470     12.000000
  0.000000  0.114823  0.114823     12.000000
 -0.000000  0.129176  0.129176     12.000000
  0.000000  0.143529  0.143529     12.000000
  0.014353  0.014353  0.028706     24.000000
  0.014353  0.028706  0.043059     48.000000
  0.014353  0.043059  0.057412     48.000000
  0.014353  0.057412  0.071764     48.000000
  0.014353  0.071764  0.086117     48.000000
  0.014353  0.086117  0.100470     48.000000
  0.014353  0.100470  0.114823     48.000000
  0.014353  0.114823  0.129176     48.000000
  0.014353  0.129176  0.143529     48.000000
  0.014353  0.143529  0.157882     24.000000
  0.028706  0.028706  0.057412     24.000000
  0.028706  0.043059  0.071764     48.000000
  0.028706  0.057412  0.086117     48.000000
  0.028706  0.071764  0.100470     48.000000
  0.028706  0.086117  0.114823     48.000000
  0.028706  0.100470  0.129176     48.000000
  0.028706  0.114823  0.143529     48.000000
  0.028706  0.129176  0.157882     48.000000
  0.043059  0.043059  0.086117     24.000000
  0.043059  0.057412  0.100470     48.000000
  0.043059  0.071764  0.114823     48.000000
  0.043059  0.086117  0.129176     48.000000
  0.043059  0.100470  0.143529     48.000000
  0.043059  0.114823  0.157882     48.000000
  0.043059  0.129176  0.172235     24.000000
  0.057412  0.057412  0.114823     24.000000
  0.057412  0.071764  0.129176     48.000000
  0.057412  0.086117  0.143529     48.000000
  0.057412  0.100470  0.157882     48.000000
  0.057412  0.114823  0.172235     48.000000
  0.071764  0.071764  0.143529     24.000000
  0.071764  0.086117  0.157882     48.000000
  0.071764  0.100470  0.172235     48.000000
  0.071764  0.114823  0.186588     24.000000
  0.086117  0.086117  0.172235     24.000000
  0.086117  0.100470  0.186588     48.000000
  0.100470  0.100470  0.200940      8.000000
  0.028706  0.028706  0.028706      8.000000
  0.028706  0.043059  0.043059     24.000000
  0.028706  0.057412  0.057412     24.000000
  0.028706  0.071764  0.071764     24.000000
  0.028706  0.086117  0.086117     24.000000
  0.028706  0.100470  0.100470     24.000000
  0.028706  0.114823  0.114823     24.000000
  0.028706  0.129176  0.129176     24.000000
  0.028706  0.143529  0.143529     24.000000
  0.028706 -0.000000 -0.000000      6.000000
  0.043059  0.043059  0.057412     24.000000
  0.043059  0.057412  0.071764     48.000000
  0.043059  0.071764  0.086117     48.000000
  0.043059  0.086117  0.100470     48.000000
  0.043059  0.100470  0.114823     48.000000
  0.043059  0.114823  0.129176     48.000000
  0.043059  0.129176  0.143529     48.000000
  0.043059  0.143529  0.157882     24.000000
  0.043059 -0.014353 -0.000000     24.000000
  0.057412  0.057412  0.086117     24.000000
  0.057412  0.071764  0.100470     48.000000
  0.057412  0.086117  0.114823     48.000000
  0.057412  0.100470  0.129176     48.000000
  0.057412  0.114823  0.143529     48.000000
  0.057412  0.129176  0.157882     48.000000
  0.057412 -0.028706 -0.000000     24.000000
  0.057412 -0.014353  0.014353     24.000000
  0.071764  0.071764  0.114823     24.000000
  0.071764  0.086117  0.129176     48.000000
  0.071764  0.100470  0.143529     48.000000
  0.071764  0.114823  0.157882     48.000000
  0.071764  0.129176  0.172235     24.000000
  0.071764 -0.043059 -0.000000     24.000000
  0.071764 -0.028706  0.014353     48.000000
  0.086117  0.086117  0.143529     24.000000
  0.086117  0.100470  0.157882     48.000000
  0.086117  0.114823  0.172235     48.000000
  0.086117 -0.057412 -0.000000     24.000000
  0.086117 -0.043059  0.014353     48.000000
  0.086117 -0.028706  0.028706     24.000000
  0.100470  0.100470  0.172235     24.000000
  0.100470  0.114823  0.186588     24.000000
  0.100470 -0.071764  0.000000     24.000000
  0.100470 -0.057412  0.014353     48.000000
  0.100470 -0.043059  0.028706     48.000000
  0.114823 -0.086117 -0.000000     24.000000
  0.114823 -0.071764  0.014353     48.000000
  0.114823 -0.057412  0.028706     48.000000
  0.114823 -0.043059  0.043059     24.000000
  0.129176 -0.100470  0.000000     24.000000
  0.129176 -0.086117  0.014353     48.000000
  0.129176 -0.071764  0.028706     48.000000
  0.129176 -0.057412  0.043059     48.000000
  0.143529 -0.114823  0.000000     24.000000
  0.143529 -0.100470  0.014353     48.000000
  0.143529 -0.086117  0.028706     48.000000
  0.143529 -0.071764  0.043059     48.000000
  0.143529 -0.057412  0.057412     24.000000
  0.157882 -0.129176  0.000000     24.000000
  0.157882 -0.114823  0.014353     48.000000
  0.157882 -0.100470  0.028706     48.000000
  0.157882 -0.086117  0.043059     48.000000
  0.157882 -0.071764  0.057412     48.000000
 -0.129176 -0.129176 -0.287058     24.000000
 -0.129176 -0.114823 -0.272705     48.000000
 -0.129176 -0.100470 -0.258352     48.000000
 -0.129176 -0.086117 -0.243999     48.000000
 -0.129176 -0.071764 -0.229646     24.000000
 -0.114823 -0.114823 -0.258352     24.000000
 -0.114823 -0.100470 -0.243999     48.000000
 -0.114823 -0.086117 -0.229646     48.000000
 -0.100470 -0.100470 -0.229646     24.000000
 -0.100470 -0.086117 -0.215293     24.000000
  0.057412  0.057412  0.057412      8.000000
  0.057412  0.071764  0.071764     24.000000
  0.057412  0.086117  0.086117     24.000000
  0.057412  0.100470  0.100470     24.000000
  0.057412  0.114823  0.114823     24.000000
  0.057412  0.129176  0.129176     24.000000
  0.057412  0.143529  0.143529     24.000000
  0.057412  0.000000  0.000000      6.000000
  0.071764  0.071764  0.086117     24.000000
  0.071764  0.086117  0.100470     48.000000
  0.071764  0.100470  0.114823     48.000000
  0.071764  0.114823  0.129176     48.000000
  0.071764  0.129176  0.143529     48.000000
  0.071764  0.143529  0.157882     24.000000
  0.071764 -0.014353 -0.000000     24.000000
  0.086117  0.086117  0.114823     24.000000
  0.086117  0.100470  0.129176     48.000000
  0.086117  0.114823  0.143529     48.000000
  0.086117  0.129176  0.157882     48.000000
  0.086117 -0.028706 -0.000000     24.000000
  0.086117 -0.014353  0.014353     24.000000
  0.100470  0.100470  0.143529     24.000000
  0.100470  0.114823  0.157882     48.000000
  0.100470  0.129176  0.172235     24.000000
  0.100470 -0.043059 -0.000000     24.000000
  0.100470 -0.028706  0.014353     48.000000
  0.114823  0.114823  0.172235     24.000000
  0.114823 -0.057412  0.000000     24.000000
  0.114823 -0.043059  0.014353     48.000000
  0.114823 -0.028706  0.028706     24.000000
  0.129176 -0.071764  0.000000     24.000000
  0.129176 -0.057412  0.014353     48.000000
  0.129176 -0.043059  0.028706     48.000000
  0.143529 -0.086117 -0.000000     24.000000
  0.143529 -0.071764  0.014353     48.000000
  0.143529 -0.057412  0.028706     48.000000
  0.143529 -0.043059  0.043059     24.000000
  0.157882 -0.100470 -0.000000     24.000000
  0.157882 -0.086117  0.014353     48.000000
  0.157882 -0.071764  0.028706     48.000000
  0.157882 -0.057412  0.043059     48.000000
  0.172235 -0.114823  0.000000     24.000000
  0.172235 -0.100470  0.014353     48.000000
  0.172235 -0.086117  0.028706     48.000000
  0.172235 -0.071764  0.043059     48.000000
  0.172235 -0.057412  0.057412     24.000000
 -0.114823 -0.114823 -0.287058     24.000000
 -0.114823 -0.100470 -0.272705     48.000000
 -0.114823 -0.086117 -0.258352     48.000000
 -0.114823 -0.071764 -0.243999     48.000000
 -0.100470 -0.100470 -0.258352     24.000000
 -0.100470 -0.086117 -0.243999     48.000000
 -0.100470 -0.071764 -0.229646     24.000000
 -0.086117 -0.086117 -0.229646     24.000000
  0.086117  0.086117  0.086117      8.000000
  0.086117  0.100470  0.100470     24.000000
  0.086117  0.114823  0.114823     24.000000
  0.086117  0.129176  0.129176     24.000000
  0.086117  0.143529  0.143529     24.000000
  0.086117 -0.000000 -0.000000      6.000000
  0.100470  0.100470  0.114823     24.000000
  0.100470  0.114823  0.129176     48.000000
  0.100470  0.129176  0.143529     48.000000
  0.100470  0.143529  0.157882     24.000000
  0.100470 -0.014353  0.000000     24.000000
  0.114823  0.114823  0.143529     24.000000
  0.114823  0.129176  0.157882     48.000000
  0.114823 -0.028706  0.000000     24.000000
  0.114823 -0.014353  0.014353     24.000000
  0.129176  0.129176  0.172235      8.000000
  0.129176 -0.043059  0.000000     24.000000
  0.129176 -0.028706  0.014353     48.000000
  0.143529 -0.057412 -0.000000     24.000000
  0.143529 -0.043059  0.014353     48.000000
  0.143529 -0.028706  0.028706     24.000000
  0.157882 -0.071764 -0.000000     24.000000
  0.157882 -0.057412  0.014353     48.000000
  0.157882 -0.043059  0.028706     48.000000
  0.172235 -0.086117  0.000000     24.000000
  0.172235 -0.071764  0.014353     48.000000
  0.172235 -0.057412  0.028706     48.000000
  0.172235 -0.043059  0.043059     24.000000
  0.186588 -0.100470  0.000000     24.000000
  0.186588 -0.086117  0.014353     48.000000
  0.186588 -0.071764  0.028706     48.000000
  0.186588 -0.057412  0.043059     48.000000
 -0.100470 -0.100470 -0.287058     24.000000
 -0.100470 -0.086117 -0.272705     48.000000
 -0.100470 -0.071764 -0.258352     48.000000
 -0.100470 -0.057412 -0.243999     24.000000
 -0.086117 -0.086117 -0.258352     24.000000
 -0.086117 -0.071764 -0.243999     48.000000
 -0.071764 -0.071764 -0.229646      8.000000
  0.114823  0.114823  0.114823      8.000000
  0.114823  0.129176  0.129176     24.000000
  0.114823  0.143529  0.143529     24.000000
  0.114823  0.000000  0.000000      6.000000
  0.129176  0.129176  0.143529     24.000000
  0.129176  0.143529  0.157882     24.000000
  0.129176 -0.014353  0.000000     24.000000
  0.143529 -0.028706  0.000000     24.000000
  0.143529 -0.014353  0.014353     24.000000
  0.157882 -0.043059 -0.000000     24.000000
  0.157882 -0.028706  0.014353     48.000000
  0.172235 -0.057412 -0.000000     24.000000
  0.172235 -0.043059  0.014353     48.000000
  0.172235 -0.028706  0.028706     24.000000
  0.186588 -0.071764 -0.000000     24.000000
  0.186588 -0.057412  0.014353     48.000000
  0.186588 -0.043059  0.028706     48.000000
  0.200940 -0.086117  0.000000     24.000000
  0.200940 -0.071764  0.014353     48.000000
  0.200940 -0.057412  0.028706     48.000000
  0.200940 -0.043059  0.043059     24.000000
 -0.086117 -0.086117 -0.287058     24.000000
 -0.086117 -0.071764 -0.272705     48.000000
 -0.086117 -0.057412 -0.258352     48.000000
 -0.071764 -0.071764 -0.258352     24.000000
 -0.071764 -0.057412 -0.243999     24.000000
  0.143529  0.143529  0.143529      8.000000
  0.143529 -0.000000  0.000000      6.000000
  0.157882 -0.014353  0.000000     24.000000
  0.172235 -0.028706 -0.000000     24.000000
  0.172235 -0.014353  0.014353     24.000000
  0.186588 -0.043059  0.000000     24.000000
  0.186588 -0.028706  0.014353     48.000000
  0.200940 -0.057412  0.000000     24.000000
  0.200940 -0.043059  0.014353     48.000000
  0.200940 -0.028706  0.028706     24.000000
  0.215293 -0.071764 -0.000000     24.000000
  0.215293 -0.057412  0.014353     48.000000
  0.215293 -0.043059  0.028706     48.000000
 -0.071764 -0.071764 -0.287058     24.000000
 -0.071764 -0.057412 -0.272705     48.000000
 -0.071764 -0.043059 -0.258352     24.000000
 -0.057412 -0.057412 -0.258352     24.000000
  0.172235  0.000000 -0.000000      6.000000
  0.186588 -0.014353 -0.000000     24.000000
  0.200940 -0.028706  0.000000     24.000000
  0.200940 -0.014353  0.014353     24.000000
  0.215293 -0.043059  0.000000     24.000000
  0.215293 -0.028706  0.014353     48.000000
  0.229646 -0.057412  0.000000     24.000000
  0.229646 -0.043059  0.014353     48.000000
  0.229646 -0.028706  0.028706     24.000000
 -0.057412 -0.057412 -0.287058     24.000000
 -0.057412 -0.043059 -0.272705     48.000000
 -0.043059 -0.043059 -0.258352      8.000000
  0.200940 -0.000000 -0.000000      6.000000
  0.215293 -0.014353 -0.000000     24.000000
  0.229646 -0.028706 -0.000000     24.000000
  0.229646 -0.014353  0.014353     24.000000
  0.243999 -0.043059 -0.000000     24.000000
  0.243999 -0.028706  0.014353     48.000000
 -0.043059 -0.043059 -0.287058     24.000000
 -0.043059 -0.028706 -0.272705     24.000000
  0.229646  0.000000  0.000000      6.000000
  0.243999 -0.014353  0.000000     24.000000
  0.258352 -0.028706  0.000000     24.000000
  0.258352 -0.014353  0.014353     24.000000
 -0.028706 -0.028706 -0.287058     24.000000
  0.258352 -0.000000  0.000000      6.000000
  0.272705 -0.014353 -0.000000     24.000000
 -0.014353 -0.014353 -0.287058      8.000000
  0.287058  0.000000  0.000000      6.000000
 


--------------------------------------------------------------------------------------------------------




 Dimension of arrays:
   k-points           NKPTS =    286   k-points in BZ     NKDIM =    286   number of bands    NBANDS=     16
   number of dos      NEDOS =    301   number of ions     NIONS =      1
   non local maximal  LDIM  =      6   non local SUM 2l+1 LMDIM =     18
   total plane-waves  NPLWV =  13824
   max r-space proj   IRMAX =      1   max aug-charges    IRDMAX=  32258
   dimension x,y,z NGX =    24 NGY =   24 NGZ =   24
   dimension x,y,z NGXF=    48 NGYF=   48 NGZF=   48
   support grid    NGXF=    48 NGYF=   48 NGZF=   48
   ions per type =               1
   NGX,Y,Z   is equivalent  to a cutoff of  13.89, 13.89, 13.89 a.u.
   NGXF,Y,Z  is equivalent  to a cutoff of  27.77, 27.77, 27.77 a.u.

 SYSTEM =  unknown system                          
 POSCAR =  Nb bcc                                  

 Startparameter for this run:
   NWRITE =      2    write-flag & timer
   PREC   = accura    normal or accurate (medium, high low for compatibility)
   ISTART =      0    job   : 0-new  1-cont  2-samecut
   ICHARG =      2    charge: 1-file 2-atom 10-const
   ISPIN  =      1    spin polarized calculation?
   LNONCOLLINEAR =      F non collinear calculations
   LSORBIT =      F    spin-orbit coupling
   INIWAV =      1    electr: 0-lowe 1-rand  2-diag
   LASPH  =      F    aspherical Exc in radial PAW
 Electronic Relaxation 1
   ENCUT  =  500.0 eV  36.75 Ry    6.06 a.u.   5.24  5.24  5.24*2*pi/ulx,y,z
   ENINI  =  500.0     initial cutoff
   ENAUG  =  455.7 eV  augmentation charge cutoff
   NELM   =     60;   NELMIN=  2; NELMDL= -5     # of ELM steps 
   EDIFF  = 0.1E-05   stopping-criterion for ELM
   LREAL  =      F    real-space projection
   NLSPLINE    = F    spline interpolate recip. space projectors
   LCOMPAT=      F    compatible to vasp.4.4
   GGA_COMPAT  = T    GGA compatible to vasp.4.4-vasp.4.6
   LMAXPAW     = -100 max onsite density
   LMAXMIX     =    2 max onsite mixed and CHGCAR
   VOSKOWN=      0    Vosko Wilk Nusair interpolation
   ROPT   =    0.00000
 Ionic relaxation
   EDIFFG = 0.1E-04   stopping-criterion for IOM
   NSW    =      0    number of steps for IOM
   NBLOCK =      1;   KBLOCK =      1    inner block; outer block 
   IBRION =     -1    ionic relax: 0-MD 1-quasi-New 2-CG
   NFREE  =      0    steps in history (QN), initial steepest desc. (CG)
   ISIF   =      2    stress and relaxation
   IWAVPR =     10    prediction:  0-non 1-charg 2-wave 3-comb
   ISYM   =      2    0-nonsym 1-usesym 2-fastsym
   LCORR  =      T    Harris-Foulkes like correction to forces

   POTIM  = 0.5000    time-step for ionic-motion
   TEIN   =    0.0    initial temperature
   TEBEG  =    0.0;   TEEND  =   0.0 temperature during run
   SMASS  =  -3.00    Nose mass-parameter (am)
   estimated Nose-frequenzy (Omega)   =  0.10E-29 period in steps = 0.13E+47 mass=  -0.189E-27a.u.
   SCALEE = 1.0000    scale energy and forces
   NPACO  =    256;   APACO  = 10.0  distance and # of slots for P.C.
   PSTRESS=    0.0 pullay stress

  Mass of Ions in am
   POMASS =  92.91
  Ionic Valenz
   ZVAL   =  13.00
  Atomic Wigner-Seitz radii
   RWIGS  =  -1.00
  virtual crystal weights 
   VCA    =   1.00
   NELECT =      13.0000    total number of electrons
   NUPDOWN=      -1.0000    fix difference up-down

 DOS related values:
   EMIN   =  10.00;   EMAX   =-10.00  energy-range for DOS
   EFERMI =   0.00
   ISMEAR =     0;   SIGMA  =   0.05  broadening in eV -4-tet -1-fermi 0-gaus

 Electronic relaxation 2 (details)
   IALGO  =     38    algorithm
   LDIAG  =      T    sub-space diagonalisation (order eigenvalues)
   LSUBROT=      F    optimize rotation matrix (better conditioning)
   TURBO    =      0    0=normal 1=particle mesh
   IRESTART =      0    0=no restart 2=restart with 2 vectors
   NREBOOT  =      0    no. of reboots
   NMIN     =      0    reboot dimension
   EREF     =   0.00    reference energy to select bands
   IMIX   =      4    mixing-type and parameters
     AMIX     =   0.40;   BMIX     =  1.00
     AMIX_MAG =   1.60;   BMIX_MAG =  1.00
     AMIN     =   0.10
     WC   =   100.;   INIMIX=   1;  MIXPRE=   1;  MAXMIX= -45

 Intra band minimization:
   WEIMIN = 0.0000     energy-eigenvalue tresh-hold
   EBREAK =  0.16E-07  absolut break condition
   DEPER  =   0.30     relativ break condition  

   TIME   =   0.40     timestep for ELM

  volume/ion in A,a.u.               =      18.26       123.22
  Fermi-wavevector in a.u.,A,eV,Ry     =   1.461811  2.762423 29.074184  2.136892
  Thomas-Fermi vector in A             =   2.578099
 
 Write flags
   LWAVE        =      F    write WAVECAR
   LDOWNSAMPLE  =      F    k-point downsampling of WAVECAR
   LCHARG       =      F    write CHGCAR
   LVTOT        =      F    write LOCPOT, total local potential
   LVHAR        =      F    write LOCPOT, Hartree potential only
   LELF         =      F    write electronic localiz. function (ELF)
   LORBIT       =      0    0 simple, 1 ext, 2 COOP (PROOUT), +10 PAW based schemes


 Dipole corrections
   LMONO  =      F    monopole corrections only (constant potential shift)
   LDIPOL =      F    correct potential (dipole corrections)
   IDIPOL =      0    1-x, 2-y, 3-z, 4-all directions 
   EPSILON=  1.0000000 bulk dielectric constant

 Exchange correlation treatment:
   GGA     =    --    GGA type
   LEXCH   =     8    internal setting for exchange type
   LIBXC   =     F    Libxc                    
   VOSKOWN =     0    Vosko Wilk Nusair interpolation
   LHFCALC =     F    Hartree Fock is set to
   LHFONE  =     F    Hartree Fock one center treatment
   AEXX    =    0.0000 exact exchange contribution

 Linear response parameters
   LEPSILON=     F    determine dielectric tensor
   LRPA    =     F    only Hartree local field effects (RPA)
   LNABLA  =     F    use nabla operator in PAW spheres
   LVEL    =     F    velocity operator in full k-point grid
   CSHIFT  =0.1000    complex shift for real part using Kramers Kronig
   OMEGAMAX=  -1.0    maximum frequency
   DEG_THRESHOLD= 0.2000000E-02 threshold for treating states as degnerate
   RTIME   =   -0.100 relaxation time in fs
  (WPLASMAI=    0.000 imaginary part of plasma frequency in eV, 0.658/RTIME)
   DFIELD  = 0.0000000 0.0000000 0.0000000 field for delta impulse in time
 
  Optional k-point grid parameters
   LKPOINTS_OPT  =     F    use optional k-point grid
   KPOINTS_OPT_MODE=     1    mode for optional k-point grid
 
 Orbital magnetization related:
   ORBITALMAG=     F  switch on orbital magnetization
   LCHIMAG   =     F  perturbation theory with respect to B field
   DQ        =  0.001000  dq finite difference perturbation B field
   LLRAUG    =     F  two centre corrections for induced B field



--------------------------------------------------------------------------------------------------------


 Static calculation
 charge density and potential will be updated during run
 non-spin polarized calculation
 Variant of blocked Davidson
 Davidson routine will perform the subspace rotation
 perform sub-space diagonalisation
    after iterative eigenvector-optimisation
 modified Broyden-mixing scheme, WC =      100.0
 initial mixing is a Kerker type mixing with AMIX =  0.4000 and BMIX =      1.0000
 Hartree-type preconditioning will be used
 using additional bands            9
 reciprocal scheme for non local part
 use partial core corrections
 calculate Harris-corrections to forces 
   (improved forces if not selfconsistent)
 use gradient corrections 
 use of overlap-Matrix (Vanderbilt PP)
 Gauss-broadening in eV      SIGMA  =   0.05


--------------------------------------------------------------------------------------------------------


  energy-cutoff  :      500.00
  volume of cell :       18.26
      direct lattice vectors                 reciprocal lattice vectors
    -1.658866000  1.658866000  1.658866000    -0.000000000  0.301410723  0.301410723
     1.658866000 -1.658866000  1.658866000     0.301410723 -0.000000000  0.301410723
     1.658866000  1.658866000 -1.658866000     0.301410723  0.301410723 -0.000000000

  length of vectors
     2.873240195  2.873240195  2.873240195     0.426259132  0.426259132  0.426259132


 
 k-points in units of 2pi/SCALE and weight: K-Spacing Value to Generate K-Mesh: 0.02
   0.00000000  0.00000000  0.00000000       0.000
  -0.00000000  0.01435289  0.01435289       0.001
   0.00000000  0.02870578  0.02870578       0.001
   0.00000000  0.04305867  0.04305867       0.001
   0.00000000  0.05741157  0.05741157       0.001
  -0.00000000  0.07176446  0.07176446       0.001
   0.00000000  0.08611735  0.08611735       0.001
   0.00000000  0.10047024  0.10047024       0.001
   0.00000000  0.11482313  0.11482313       0.001
  -0.00000000  0.12917602  0.12917602       0.001
   0.00000000  0.14352892  0.14352892       0.001
   0.01435289  0.01435289  0.02870578       0.003
   0.01435289  0.02870578  0.04305867       0.005
   0.01435289  0.04305867  0.05741157       0.005
   0.01435289  0.05741157  0.07176446       0.005
   0.01435289  0.07176446  0.08611735       0.005
   0.01435289  0.08611735  0.10047024       0.005
   0.01435289  0.10047024  0.11482313       0.005
   0.01435289  0.11482313  0.12917602       0.005
   0.01435289  0.12917602  0.14352892       0.005
   0.01435289  0.14352892  0.15788181       0.003
   0.02870578  0.02870578  0.05741157       0.003
   0.02870578  0.04305867  0.07176446       0.005
   0.02870578  0.05741157  0.08611735       0.005
   0.02870578  0.07176446  0.10047024       0.005
   0.02870578  0.08611735  0.11482313       0.005
   0.02870578  0.10047024  0.12917602       0.005
   0.02870578  0.11482313  0.14352892       0.005
   0.02870578  0.12917602  0.15788181       0.005
   0.04305867  0.04305867  0.08611735       0.003
   0.04305867  0.05741157  0.10047024       0.005
   0.04305867  0.07176446  0.11482313       0.005
   0.04305867  0.08611735  0.12917602       0.005
   0.04305867  0.10047024  0.14352892       0.005
   0.04305867  0.11482313  0.15788181       0.005
   0.04305867  0.12917602  0.17223470       0.003
   0.05741157  0.05741157  0.11482313       0.003
   0.05741157  0.07176446  0.12917602       0.005
   0.05741157  0.08611735  0.14352892       0.005
   0.05741157  0.10047024  0.15788181       0.005
   0.05741157  0.11482313  0.17223470       0.005
   0.07176446  0.07176446  0.14352892       0.003
   0.07176446  0.08611735  0.15788181       0.005
   0.07176446  0.10047024  0.17223470       0.005
   0.07176446  0.11482313  0.18658759       0.003
   0.08611735  0.08611735  0.17223470       0.003
   0.08611735  0.10047024  0.18658759       0.005
   0.10047024  0.10047024  0.20094048       0.001
   0.02870578  0.02870578  0.02870578       0.001
   0.02870578  0.04305867  0.04305867       0.003
   0.02870578  0.05741157  0.05741157       0.003
   0.02870578  0.07176446  0.07176446       0.003
   0.02870578  0.08611735  0.08611735       0.003
   0.02870578  0.10047024  0.10047024       0.003
   0.02870578  0.11482313  0.11482313       0.003
   0.02870578  0.12917602  0.12917602       0.003
   0.02870578  0.14352892  0.14352892       0.003
   0.02870578 -0.00000000  0.00000000       0.001
   0.04305867  0.04305867  0.05741157       0.003
   0.04305867  0.05741157  0.07176446       0.005
   0.04305867  0.07176446  0.08611735       0.005
   0.04305867  0.08611735  0.10047024       0.005
   0.04305867  0.10047024  0.11482313       0.005
   0.04305867  0.11482313  0.12917602       0.005
   0.04305867  0.12917602  0.14352892       0.005
   0.04305867  0.14352892  0.15788181       0.003
   0.04305867 -0.01435289  0.00000000       0.003
   0.05741157  0.05741157  0.08611735       0.003
   0.05741157  0.07176446  0.10047024       0.005
   0.05741157  0.08611735  0.11482313       0.005
   0.05741157  0.10047024  0.12917602       0.005
   0.05741157  0.11482313  0.14352892       0.005
   0.05741157  0.12917602  0.15788181       0.005
   0.05741157 -0.02870578  0.00000000       0.003
   0.05741157 -0.01435289  0.01435289       0.003
   0.07176446  0.07176446  0.11482313       0.003
   0.07176446  0.08611735  0.12917602       0.005
   0.07176446  0.10047024  0.14352892       0.005
   0.07176446  0.11482313  0.15788181       0.005
   0.07176446  0.12917602  0.17223470       0.003
   0.07176446 -0.04305867  0.00000000       0.003
   0.07176446 -0.02870578  0.01435289       0.005
   0.08611735  0.08611735  0.14352892       0.003
   0.08611735  0.10047024  0.15788181       0.005
   0.08611735  0.11482313  0.17223470       0.005
   0.08611735 -0.05741157  0.00000000       0.003
   0.08611735 -0.04305867  0.01435289       0.005
   0.08611735 -0.02870578  0.02870578       0.003
   0.10047024  0.10047024  0.17223470       0.003
   0.10047024  0.11482313  0.18658759       0.003
   0.10047024 -0.07176446 -0.00000000       0.003
   0.10047024 -0.05741157  0.01435289       0.005
   0.10047024 -0.04305867  0.02870578       0.005
   0.11482313 -0.08611735  0.00000000       0.003
   0.11482313 -0.07176446  0.01435289       0.005
   0.11482313 -0.05741157  0.02870578       0.005
   0.11482313 -0.04305867  0.04305867       0.003
   0.12917602 -0.10047024 -0.00000000       0.003
   0.12917602 -0.08611735  0.01435289       0.005
   0.12917602 -0.07176446  0.02870578       0.005
   0.12917602 -0.05741157  0.04305867       0.005
   0.14352892 -0.11482313 -0.00000000       0.003
   0.14352892 -0.10047024  0.01435289       0.005
   0.14352892 -0.08611735  0.02870578       0.005
   0.14352892 -0.07176446  0.04305867       0.005
   0.14352892 -0.05741157  0.05741157       0.003
   0.15788181 -0.12917602 -0.00000000       0.003
   0.15788181 -0.11482313  0.01435289       0.005
   0.15788181 -0.10047024  0.02870578       0.005
   0.15788181 -0.08611735  0.04305867       0.005
   0.15788181 -0.07176446  0.05741157       0.005
  -0.12917602 -0.12917602 -0.28705783       0.003
  -0.12917602 -0.11482313 -0.27270494       0.005
  -0.12917602 -0.10047024 -0.25835205       0.005
  -0.12917602 -0.08611735 -0.24399916       0.005
  -0.12917602 -0.07176446 -0.22964626       0.003
  -0.11482313 -0.11482313 -0.25835205       0.003
  -0.11482313 -0.10047024 -0.24399916       0.005
  -0.11482313 -0.08611735 -0.22964626       0.005
  -0.10047024 -0.10047024 -0.22964626       0.003
  -0.10047024 -0.08611735 -0.21529337       0.003
   0.05741157  0.05741157  0.05741157       0.001
   0.05741157  0.07176446  0.07176446       0.003
   0.05741157  0.08611735  0.08611735       0.003
   0.05741157  0.10047024  0.10047024       0.003
   0.05741157  0.11482313  0.11482313       0.003
   0.05741157  0.12917602  0.12917602       0.003
   0.05741157  0.14352892  0.14352892       0.003
   0.05741157  0.00000000 -0.00000000       0.001
   0.07176446  0.07176446  0.08611735       0.003
   0.07176446  0.08611735  0.10047024       0.005
   0.07176446  0.10047024  0.11482313       0.005
   0.07176446  0.11482313  0.12917602       0.005
   0.07176446  0.12917602  0.14352892       0.005
   0.07176446  0.14352892  0.15788181       0.003
   0.07176446 -0.01435289  0.00000000       0.003
   0.08611735  0.08611735  0.11482313       0.003
   0.08611735  0.10047024  0.12917602       0.005
   0.08611735  0.11482313  0.14352892       0.005
   0.08611735  0.12917602  0.15788181       0.005
   0.08611735 -0.02870578  0.00000000       0.003
   0.08611735 -0.01435289  0.01435289       0.003
   0.10047024  0.10047024  0.14352892       0.003
   0.10047024  0.11482313  0.15788181       0.005
   0.10047024  0.12917602  0.17223470       0.003
   0.10047024 -0.04305867  0.00000000       0.003
   0.10047024 -0.02870578  0.01435289       0.005
   0.11482313  0.11482313  0.17223470       0.003
   0.11482313 -0.05741157 -0.00000000       0.003
   0.11482313 -0.04305867  0.01435289       0.005
   0.11482313 -0.02870578  0.02870578       0.003
   0.12917602 -0.07176446 -0.00000000       0.003
   0.12917602 -0.05741157  0.01435289       0.005
   0.12917602 -0.04305867  0.02870578       0.005
   0.14352892 -0.08611735  0.00000000       0.003
   0.14352892 -0.07176446  0.01435289       0.005
   0.14352892 -0.05741157  0.02870578       0.005
   0.14352892 -0.04305867  0.04305867       0.003
   0.15788181 -0.10047024  0.00000000       0.003
   0.15788181 -0.08611735  0.01435289       0.005
   0.15788181 -0.07176446  0.02870578       0.005
   0.15788181 -0.05741157  0.04305867       0.005
   0.17223470 -0.11482313 -0.00000000       0.003
   0.17223470 -0.10047024  0.01435289       0.005
   0.17223470 -0.08611735  0.02870578       0.005
   0.17223470 -0.07176446  0.04305867       0.005
   0.17223470 -0.05741157  0.05741157       0.003
  -0.11482313 -0.11482313 -0.28705783       0.003
  -0.11482313 -0.10047024 -0.27270494       0.005
  -0.11482313 -0.08611735 -0.25835205       0.005
  -0.11482313 -0.07176446 -0.24399916       0.005
  -0.10047024 -0.10047024 -0.25835205       0.003
  -0.10047024 -0.08611735 -0.24399916       0.005
  -0.10047024 -0.07176446 -0.22964626       0.003
  -0.08611735 -0.08611735 -0.22964626       0.003
   0.08611735  0.08611735  0.08611735       0.001
   0.08611735  0.10047024  0.10047024       0.003
   0.08611735  0.11482313  0.11482313       0.003
   0.08611735  0.12917602  0.12917602       0.003
   0.08611735  0.14352892  0.14352892       0.003
   0.08611735 -0.00000000  0.00000000       0.001
   0.10047024  0.10047024  0.11482313       0.003
   0.10047024  0.11482313  0.12917602       0.005
   0.10047024  0.12917602  0.14352892       0.005
   0.10047024  0.14352892  0.15788181       0.003
   0.10047024 -0.01435289 -0.00000000       0.003
   0.11482313  0.11482313  0.14352892       0.003
   0.11482313  0.12917602  0.15788181       0.005
   0.11482313 -0.02870578 -0.00000000       0.003
   0.11482313 -0.01435289  0.01435289       0.003
   0.12917602  0.12917602  0.17223470       0.001
   0.12917602 -0.04305867 -0.00000000       0.003
   0.12917602 -0.02870578  0.01435289       0.005
   0.14352892 -0.05741157  0.00000000       0.003
   0.14352892 -0.04305867  0.01435289       0.005
   0.14352892 -0.02870578  0.02870578       0.003
   0.15788181 -0.07176446  0.00000000       0.003
   0.15788181 -0.05741157  0.01435289       0.005
   0.15788181 -0.04305867  0.02870578       0.005
   0.17223470 -0.08611735 -0.00000000       0.003
   0.17223470 -0.07176446  0.01435289       0.005
   0.17223470 -0.05741157  0.02870578       0.005
   0.17223470 -0.04305867  0.04305867       0.003
   0.18658759 -0.10047024 -0.00000000       0.003
   0.18658759 -0.08611735  0.01435289       0.005
   0.18658759 -0.07176446  0.02870578       0.005
   0.18658759 -0.05741157  0.04305867       0.005
  -0.10047024 -0.10047024 -0.28705783       0.003
  -0.10047024 -0.08611735 -0.27270494       0.005
  -0.10047024 -0.07176446 -0.25835205       0.005
  -0.10047024 -0.05741157 -0.24399916       0.003
  -0.08611735 -0.08611735 -0.25835205       0.003
  -0.08611735 -0.07176446 -0.24399916       0.005
  -0.07176446 -0.07176446 -0.22964626       0.001
   0.11482313  0.11482313  0.11482313       0.001
   0.11482313  0.12917602  0.12917602       0.003
   0.11482313  0.14352892  0.14352892       0.003
   0.11482313  0.00000000 -0.00000000       0.001
   0.12917602  0.12917602  0.14352892       0.003
   0.12917602  0.14352892  0.15788181       0.003
   0.12917602 -0.01435289 -0.00000000       0.003
   0.14352892 -0.02870578 -0.00000000       0.003
   0.14352892 -0.01435289  0.01435289       0.003
   0.15788181 -0.04305867  0.00000000       0.003
   0.15788181 -0.02870578  0.01435289       0.005
   0.17223470 -0.05741157  0.00000000       0.003
   0.17223470 -0.04305867  0.01435289       0.005
   0.17223470 -0.02870578  0.02870578       0.003
   0.18658759 -0.07176446  0.00000000       0.003
   0.18658759 -0.05741157  0.01435289       0.005
   0.18658759 -0.04305867  0.02870578       0.005
   0.20094048 -0.08611735 -0.00000000       0.003
   0.20094048 -0.07176446  0.01435289       0.005
   0.20094048 -0.05741157  0.02870578       0.005
   0.20094048 -0.04305867  0.04305867       0.003
  -0.08611735 -0.08611735 -0.28705783       0.003
  -0.08611735 -0.07176446 -0.27270494       0.005
  -0.08611735 -0.05741157 -0.25835205       0.005
  -0.07176446 -0.07176446 -0.25835205       0.003
  -0.07176446 -0.05741157 -0.24399916       0.003
   0.14352892  0.14352892  0.14352892       0.001
   0.14352892 -0.00000000 -0.00000000       0.001
   0.15788181 -0.01435289 -0.00000000       0.003
   0.17223470 -0.02870578  0.00000000       0.003
   0.17223470 -0.01435289  0.01435289       0.003
   0.18658759 -0.04305867 -0.00000000       0.003
   0.18658759 -0.02870578  0.01435289       0.005
   0.20094048 -0.05741157 -0.00000000       0.003
   0.20094048 -0.04305867  0.01435289       0.005
   0.20094048 -0.02870578  0.02870578       0.003
   0.21529337 -0.07176446  0.00000000       0.003
   0.21529337 -0.05741157  0.01435289       0.005
   0.21529337 -0.04305867  0.02870578       0.005
  -0.07176446 -0.07176446 -0.28705783       0.003
  -0.07176446 -0.05741157 -0.27270494       0.005
  -0.07176446 -0.04305867 -0.25835205       0.003
  -0.05741157 -0.05741157 -0.25835205       0.003
   0.17223470  0.00000000 -0.00000000       0.001
   0.18658759 -0.01435289  0.00000000       0.003
   0.20094048 -0.02870578 -0.00000000       0.003
   0.20094048 -0.01435289  0.01435289       0.003
   0.21529337 -0.04305867 -0.00000000       0.003
   0.21529337 -0.02870578  0.01435289       0.005
   0.22964626 -0.05741157 -0.00000000       0.003
   0.22964626 -0.04305867  0.01435289       0.005
   0.22964626 -0.02870578  0.02870578       0.003
  -0.05741157 -0.05741157 -0.28705783       0.003
  -0.05741157 -0.04305867 -0.27270494       0.005
  -0.04305867 -0.04305867 -0.25835205       0.001
   0.20094048 -0.00000000  0.00000000       0.001
   0.21529337 -0.01435289  0.00000000       0.003
   0.22964626 -0.02870578  0.00000000       0.003
   0.22964626 -0.01435289  0.01435289       0.003
   0.24399916 -0.04305867  0.00000000       0.003
   0.24399916 -0.02870578  0.01435289       0.005
  -0.04305867 -0.04305867 -0.28705783       0.003
  -0.04305867 -0.02870578 -0.27270494       0.003
   0.22964626  0.00000000 -0.00000000       0.001
   0.24399916 -0.01435289 -0.00000000       0.003
   0.25835205 -0.02870578 -0.00000000       0.003
   0.25835205 -0.01435289  0.01435289       0.003
  -0.02870578 -0.02870578 -0.28705783       0.003
   0.25835205 -0.00000000 -0.00000000       0.001
   0.27270494 -0.01435289  0.00000000       0.003
  -0.01435289 -0.01435289 -0.28705783       0.001
   0.28705783  0.00000000 -0.00000000       0.001
 
 k-points in reciprocal lattice and weights: K-Spacing Value to Generate K-Mesh: 0.02
   0.00000000  0.00000000  0.00000000       0.000
   0.04761905  0.00000000 -0.00000000       0.001
   0.09523810  0.00000000  0.00000000       0.001
   0.14285714 -0.00000000  0.00000000       0.001
   0.19047619 -0.00000000  0.00000000       0.001
   0.23809524 -0.00000000 -0.00000000       0.001
   0.28571429  0.00000000  0.00000000       0.001
   0.33333333  0.00000000  0.00000000       0.001
   0.38095238 -0.00000000  0.00000000       0.001
   0.42857143  0.00000000 -0.00000000       0.001
   0.47619048 -0.00000000  0.00000000       0.001
   0.04761905  0.04761905 -0.00000000       0.003
   0.09523810  0.04761905  0.00000000       0.005
   0.14285714  0.04761905  0.00000000       0.005
   0.19047619  0.04761905 -0.00000000       0.005
   0.23809524  0.04761905 -0.00000000       0.005
   0.28571429  0.04761905  0.00000000       0.005
   0.33333333  0.04761905  0.00000000       0.005
   0.38095238  0.04761905 -0.00000000       0.005
   0.42857143  0.04761905 -0.00000000       0.005
   0.47619048  0.04761905  0.00000000       0.003
   0.09523810  0.09523810  0.00000000       0.003
   0.14285714  0.09523810 -0.00000000       0.005
   0.19047619  0.09523810  0.00000000       0.005
   0.23809524  0.09523810  0.00000000       0.005
   0.28571429  0.09523810  0.00000000       0.005
   0.33333333  0.09523810 -0.00000000       0.005
   0.38095238  0.09523810  0.00000000       0.005
   0.42857143  0.09523810  0.00000000       0.005
   0.14285714  0.14285714 -0.00000000       0.003
   0.19047619  0.14285714  0.00000000       0.005
   0.23809524  0.14285714  0.00000000       0.005
   0.28571429  0.14285714 -0.00000000       0.005
   0.33333333  0.14285714 -0.00000000       0.005
   0.38095238  0.14285714  0.00000000       0.005
   0.42857143  0.14285714  0.00000000       0.003
   0.19047619  0.19047619  0.00000000       0.003
   0.23809524  0.19047619 -0.00000000       0.005
   0.28571429  0.19047619  0.00000000       0.005
   0.33333333  0.19047619  0.00000000       0.005
   0.38095238  0.19047619  0.00000000       0.005
   0.23809524  0.23809524 -0.00000000       0.003
   0.28571429  0.23809524  0.00000000       0.005
   0.33333333  0.23809524  0.00000000       0.005
   0.38095238  0.23809524 -0.00000000       0.003
   0.28571429  0.28571429  0.00000000       0.003
   0.33333333  0.28571429 -0.00000000       0.005
   0.33333333  0.33333333 -0.00000000       0.001
   0.04761905  0.04761905  0.04761905       0.001
   0.09523810  0.04761905  0.04761905       0.003
   0.14285714  0.04761905  0.04761905       0.003
   0.19047619  0.04761905  0.04761905       0.003
   0.23809524  0.04761905  0.04761905       0.003
   0.28571429  0.04761905  0.04761905       0.003
   0.33333333  0.04761905  0.04761905       0.003
   0.38095238  0.04761905  0.04761905       0.003
   0.42857143  0.04761905  0.04761905       0.003
  -0.04761905  0.04761905  0.04761905       0.001
   0.09523810  0.09523810  0.04761905       0.003
   0.14285714  0.09523810  0.04761905       0.005
   0.19047619  0.09523810  0.04761905       0.005
   0.23809524  0.09523810  0.04761905       0.005
   0.28571429  0.09523810  0.04761905       0.005
   0.33333333  0.09523810  0.04761905       0.005
   0.38095238  0.09523810  0.04761905       0.005
   0.42857143  0.09523810  0.04761905       0.003
  -0.09523810  0.09523810  0.04761905       0.003
   0.14285714  0.14285714  0.04761905       0.003
   0.19047619  0.14285714  0.04761905       0.005
   0.23809524  0.14285714  0.04761905       0.005
   0.28571429  0.14285714  0.04761905       0.005
   0.33333333  0.14285714  0.04761905       0.005
   0.38095238  0.14285714  0.04761905       0.005
  -0.14285714  0.14285714  0.04761905       0.003
  -0.09523810  0.14285714  0.04761905       0.003
   0.19047619  0.19047619  0.04761905       0.003
   0.23809524  0.19047619  0.04761905       0.005
   0.28571429  0.19047619  0.04761905       0.005
   0.33333333  0.19047619  0.04761905       0.005
   0.38095238  0.19047619  0.04761905       0.003
  -0.19047619  0.19047619  0.04761905       0.003
  -0.14285714  0.19047619  0.04761905       0.005
   0.23809524  0.23809524  0.04761905       0.003
   0.28571429  0.23809524  0.04761905       0.005
   0.33333333  0.23809524  0.04761905       0.005
  -0.23809524  0.23809524  0.04761905       0.003
  -0.19047619  0.23809524  0.04761905       0.005
  -0.14285714  0.23809524  0.04761905       0.003
   0.28571429  0.28571429  0.04761905       0.003
   0.33333333  0.28571429  0.04761905       0.003
  -0.28571429  0.28571429  0.04761905       0.003
  -0.23809524  0.28571429  0.04761905       0.005
  -0.19047619  0.28571429  0.04761905       0.005
  -0.33333333  0.33333333  0.04761905       0.003
  -0.28571429  0.33333333  0.04761905       0.005
  -0.23809524  0.33333333  0.04761905       0.005
  -0.19047619  0.33333333  0.04761905       0.003
  -0.38095238  0.38095238  0.04761905       0.003
  -0.33333333  0.38095238  0.04761905       0.005
  -0.28571429  0.38095238  0.04761905       0.005
  -0.23809524  0.38095238  0.04761905       0.005
  -0.42857143  0.42857143  0.04761905       0.003
  -0.38095238  0.42857143  0.04761905       0.005
  -0.33333333  0.42857143  0.04761905       0.005
  -0.28571429  0.42857143  0.04761905       0.005
  -0.23809524  0.42857143  0.04761905       0.003
  -0.47619048  0.47619048  0.04761905       0.003
  -0.42857143  0.47619048  0.04761905       0.005
  -0.38095238  0.47619048  0.04761905       0.005
  -0.33333333  0.47619048  0.04761905       0.005
  -0.28571429  0.47619048  0.04761905       0.005
  -0.47619048 -0.47619048  0.04761905       0.003
  -0.42857143 -0.47619048  0.04761905       0.005
  -0.38095238 -0.47619048  0.04761905       0.005
  -0.33333333 -0.47619048  0.04761905       0.005
  -0.28571429 -0.47619048  0.04761905       0.003
  -0.42857143 -0.42857143  0.04761905       0.003
  -0.38095238 -0.42857143  0.04761905       0.005
  -0.33333333 -0.42857143  0.04761905       0.005
  -0.38095238 -0.38095238  0.04761905       0.003
  -0.33333333 -0.38095238  0.04761905       0.003
   0.09523810  0.09523810  0.09523810       0.001
   0.14285714  0.09523810  0.09523810       0.003
   0.19047619  0.09523810  0.09523810       0.003
   0.23809524  0.09523810  0.09523810       0.003
   0.28571429  0.09523810  0.09523810       0.003
   0.33333333  0.09523810  0.09523810       0.003
   0.38095238  0.09523810  0.09523810       0.003
  -0.09523810  0.09523810  0.09523810       0.001
   0.14285714  0.14285714  0.09523810       0.003
   0.19047619  0.14285714  0.09523810       0.005
   0.23809524  0.14285714  0.09523810       0.005
   0.28571429  0.14285714  0.09523810       0.005
   0.33333333  0.14285714  0.09523810       0.005
   0.38095238  0.14285714  0.09523810       0.003
  -0.14285714  0.14285714  0.09523810       0.003
   0.19047619  0.19047619  0.09523810       0.003
   0.23809524  0.19047619  0.09523810       0.005
   0.28571429  0.19047619  0.09523810       0.005
   0.33333333  0.19047619  0.09523810       0.005
  -0.19047619  0.19047619  0.09523810       0.003
  -0.14285714  0.19047619  0.09523810       0.003
   0.23809524  0.23809524  0.09523810       0.003
   0.28571429  0.23809524  0.09523810       0.005
   0.33333333  0.23809524  0.09523810       0.003
  -0.23809524  0.23809524  0.09523810       0.003
  -0.19047619  0.23809524  0.09523810       0.005
   0.28571429  0.28571429  0.09523810       0.003
  -0.28571429  0.28571429  0.09523810       0.003
  -0.23809524  0.28571429  0.09523810       0.005
  -0.19047619  0.28571429  0.09523810       0.003
  -0.33333333  0.33333333  0.09523810       0.003
  -0.28571429  0.33333333  0.09523810       0.005
  -0.23809524  0.33333333  0.09523810       0.005
  -0.38095238  0.38095238  0.09523810       0.003
  -0.33333333  0.38095238  0.09523810       0.005
  -0.28571429  0.38095238  0.09523810       0.005
  -0.23809524  0.38095238  0.09523810       0.003
  -0.42857143  0.42857143  0.09523810       0.003
  -0.38095238  0.42857143  0.09523810       0.005
  -0.33333333  0.42857143  0.09523810       0.005
  -0.28571429  0.42857143  0.09523810       0.005
  -0.47619048  0.47619048  0.09523810       0.003
  -0.42857143  0.47619048  0.09523810       0.005
  -0.38095238  0.47619048  0.09523810       0.005
  -0.33333333  0.47619048  0.09523810       0.005
  -0.28571429  0.47619048  0.09523810       0.003
  -0.47619048 -0.47619048  0.09523810       0.003
  -0.42857143 -0.47619048  0.09523810       0.005
  -0.38095238 -0.47619048  0.09523810       0.005
  -0.33333333 -0.47619048  0.09523810       0.005
  -0.42857143 -0.42857143  0.09523810       0.003
  -0.38095238 -0.42857143  0.09523810       0.005
  -0.33333333 -0.42857143  0.09523810       0.003
  -0.38095238 -0.38095238  0.09523810       0.003
   0.14285714  0.14285714  0.14285714       0.001
   0.19047619  0.14285714  0.14285714       0.003
   0.23809524  0.14285714  0.14285714       0.003
   0.28571429  0.14285714  0.14285714       0.003
   0.33333333  0.14285714  0.14285714       0.003
  -0.14285714  0.14285714  0.14285714       0.001
   0.19047619  0.19047619  0.14285714       0.003
   0.23809524  0.19047619  0.14285714       0.005
   0.28571429  0.19047619  0.14285714       0.005
   0.33333333  0.19047619  0.14285714       0.003
  -0.19047619  0.19047619  0.14285714       0.003
   0.23809524  0.23809524  0.14285714       0.003
   0.28571429  0.23809524  0.14285714       0.005
  -0.23809524  0.23809524  0.14285714       0.003
  -0.19047619  0.23809524  0.14285714       0.003
   0.28571429  0.28571429  0.14285714       0.001
  -0.28571429  0.28571429  0.14285714       0.003
  -0.23809524  0.28571429  0.14285714       0.005
  -0.33333333  0.33333333  0.14285714       0.003
  -0.28571429  0.33333333  0.14285714       0.005
  -0.23809524  0.33333333  0.14285714       0.003
  -0.38095238  0.38095238  0.14285714       0.003
  -0.33333333  0.38095238  0.14285714       0.005
  -0.28571429  0.38095238  0.14285714       0.005
  -0.42857143  0.42857143  0.14285714       0.003
  -0.38095238  0.42857143  0.14285714       0.005
  -0.33333333  0.42857143  0.14285714       0.005
  -0.28571429  0.42857143  0.14285714       0.003
  -0.47619048  0.47619048  0.14285714       0.003
  -0.42857143  0.47619048  0.14285714       0.005
  -0.38095238  0.47619048  0.14285714       0.005
  -0.33333333  0.47619048  0.14285714       0.005
  -0.47619048 -0.47619048  0.14285714       0.003
  -0.42857143 -0.47619048  0.14285714       0.005
  -0.38095238 -0.47619048  0.14285714       0.005
  -0.33333333 -0.47619048  0.14285714       0.003
  -0.42857143 -0.42857143  0.14285714       0.003
  -0.38095238 -0.42857143  0.14285714       0.005
  -0.38095238 -0.38095238  0.14285714       0.001
   0.19047619  0.19047619  0.19047619       0.001
   0.23809524  0.19047619  0.19047619       0.003
   0.28571429  0.19047619  0.19047619       0.003
  -0.19047619  0.19047619  0.19047619       0.001
   0.23809524  0.23809524  0.19047619       0.003
   0.28571429  0.23809524  0.19047619       0.003
  -0.23809524  0.23809524  0.19047619       0.003
  -0.28571429  0.28571429  0.19047619       0.003
  -0.23809524  0.28571429  0.19047619       0.003
  -0.33333333  0.33333333  0.19047619       0.003
  -0.28571429  0.33333333  0.19047619       0.005
  -0.38095238  0.38095238  0.19047619       0.003
  -0.33333333  0.38095238  0.19047619       0.005
  -0.28571429  0.38095238  0.19047619       0.003
  -0.42857143  0.42857143  0.19047619       0.003
  -0.38095238  0.42857143  0.19047619       0.005
  -0.33333333  0.42857143  0.19047619       0.005
  -0.47619048  0.47619048  0.19047619       0.003
  -0.42857143  0.47619048  0.19047619       0.005
  -0.38095238  0.47619048  0.19047619       0.005
  -0.33333333  0.47619048  0.19047619       0.003
  -0.47619048 -0.47619048  0.19047619       0.003
  -0.42857143 -0.47619048  0.19047619       0.005
  -0.38095238 -0.47619048  0.19047619       0.005
  -0.42857143 -0.42857143  0.19047619       0.003
  -0.38095238 -0.42857143  0.19047619       0.003
   0.23809524  0.23809524  0.23809524       0.001
  -0.23809524  0.23809524  0.23809524       0.001
  -0.28571429  0.28571429  0.23809524       0.003
  -0.33333333  0.33333333  0.23809524       0.003
  -0.28571429  0.33333333  0.23809524       0.003
  -0.38095238  0.38095238  0.23809524       0.003
  -0.33333333  0.38095238  0.23809524       0.005
  -0.42857143  0.42857143  0.23809524       0.003
  -0.38095238  0.42857143  0.23809524       0.005
  -0.33333333  0.42857143  0.23809524       0.003
  -0.47619048  0.47619048  0.23809524       0.003
  -0.42857143  0.47619048  0.23809524       0.005
  -0.38095238  0.47619048  0.23809524       0.005
  -0.47619048 -0.47619048  0.23809524       0.003
  -0.42857143 -0.47619048  0.23809524       0.005
  -0.38095238 -0.47619048  0.23809524       0.003
  -0.42857143 -0.42857143  0.23809524       0.003
  -0.28571429  0.28571429  0.28571429       0.001
  -0.33333333  0.33333333  0.28571429       0.003
  -0.38095238  0.38095238  0.28571429       0.003
  -0.33333333  0.38095238  0.28571429       0.003
  -0.42857143  0.42857143  0.28571429       0.003
  -0.38095238  0.42857143  0.28571429       0.005
  -0.47619048  0.47619048  0.28571429       0.003
  -0.42857143  0.47619048  0.28571429       0.005
  -0.38095238  0.47619048  0.28571429       0.003
  -0.47619048 -0.47619048  0.28571429       0.003
  -0.42857143 -0.47619048  0.28571429       0.005
  -0.42857143 -0.42857143  0.28571429       0.001
  -0.33333333  0.33333333  0.33333333       0.001
  -0.38095238  0.38095238  0.33333333       0.003
  -0.42857143  0.42857143  0.33333333       0.003
  -0.38095238  0.42857143  0.33333333       0.003
  -0.47619048  0.47619048  0.33333333       0.003
  -0.42857143  0.47619048  0.33333333       0.005
  -0.47619048 -0.47619048  0.33333333       0.003
  -0.42857143 -0.47619048  0.33333333       0.003
  -0.38095238  0.38095238  0.38095238       0.001
  -0.42857143  0.42857143  0.38095238       0.003
  -0.47619048  0.47619048  0.38095238       0.003
  -0.42857143  0.47619048  0.38095238       0.003
  -0.47619048 -0.47619048  0.38095238       0.003
  -0.42857143  0.42857143  0.42857143       0.001
  -0.47619048  0.47619048  0.42857143       0.003
  -0.47619048 -0.47619048  0.42857143       0.001
  -0.47619048  0.47619048  0.47619048       0.001
 
 position of ions in fractional coordinates (direct lattice) 
   0.00000000  0.00000000  0.00000000
 
 position of ions in cartesian coordinates  (Angst):
   0.00000000  0.00000000  0.00000000
 


--------------------------------------------------------------------------------------------------------


 k-point   1 :   0.0000 0.0000 0.0000  plane waves:     459
 k-point   2 :   0.0476 0.0000-0.0000  plane waves:     457
 k-point   3 :   0.0952 0.0000 0.0000  plane waves:     455
 k-point   4 :   0.1429-0.0000 0.0000  plane waves:     459
 k-point   5 :   0.1905-0.0000 0.0000  plane waves:     461
 k-point   6 :   0.2381-0.0000-0.0000  plane waves:     461
 k-point   7 :   0.2857 0.0000 0.0000  plane waves:     460
 k-point   8 :   0.3333 0.0000 0.0000  plane waves:     468
 k-point   9 :   0.3810-0.0000 0.0000  plane waves:     468
 k-point  10 :   0.4286 0.0000-0.0000  plane waves:     464
 k-point  11 :   0.4762-0.0000 0.0000  plane waves:     466
 k-point  12 :   0.0476 0.0476-0.0000  plane waves:     455
 k-point  13 :   0.0952 0.0476 0.0000  plane waves:     460
 k-point  14 :   0.1429 0.0476 0.0000  plane waves:     459
 k-point  15 :   0.1905 0.0476-0.0000  plane waves:     460
 k-point  16 :   0.2381 0.0476-0.0000  plane waves:     462
 k-point  17 :   0.2857 0.0476 0.0000  plane waves:     463
 k-point  18 :   0.3333 0.0476 0.0000  plane waves:     465
 k-point  19 :   0.3810 0.0476-0.0000  plane waves:     467
 k-point  20 :   0.4286 0.0476-0.0000  plane waves:     462
 k-point  21 :   0.4762 0.0476 0.0000  plane waves:     462
 k-point  22 :   0.0952 0.0952 0.0000  plane waves:     463
 k-point  23 :   0.1429 0.0952-0.0000  plane waves:     459
 k-point  24 :   0.1905 0.0952 0.0000  plane waves:     459
 k-point  25 :   0.2381 0.0952 0.0000  plane waves:     463
 k-point  26 :   0.2857 0.0952 0.0000  plane waves:     467
 k-point  27 :   0.3333 0.0952-0.0000  plane waves:     468
 k-point  28 :   0.3810 0.0952 0.0000  plane waves:     465
 k-point  29 :   0.4286 0.0952 0.0000  plane waves:     461
 k-point  30 :   0.1429 0.1429-0.0000  plane waves:     461
 k-point  31 :   0.1905 0.1429 0.0000  plane waves:     460
 k-point  32 :   0.2381 0.1429 0.0000  plane waves:     461
 k-point  33 :   0.2857 0.1429-0.0000  plane waves:     466
 k-point  34 :   0.3333 0.1429-0.0000  plane waves:     465
 k-point  35 :   0.3810 0.1429 0.0000  plane waves:     464
 k-point  36 :   0.4286 0.1429 0.0000  plane waves:     469
 k-point  37 :   0.1905 0.1905 0.0000  plane waves:     461
 k-point  38 :   0.2381 0.1905-0.0000  plane waves:     464
 k-point  39 :   0.2857 0.1905 0.0000  plane waves:     467
 k-point  40 :   0.3333 0.1905 0.0000  plane waves:     467
 k-point  41 :   0.3810 0.1905 0.0000  plane waves:     465
 k-point  42 :   0.2381 0.2381-0.0000  plane waves:     467
 k-point  43 :   0.2857 0.2381 0.0000  plane waves:     469
 k-point  44 :   0.3333 0.2381 0.0000  plane waves:     471
 k-point  45 :   0.3810 0.2381-0.0000  plane waves:     471
 k-point  46 :   0.2857 0.2857 0.0000  plane waves:     467
 k-point  47 :   0.3333 0.2857-0.0000  plane waves:     469
 k-point  48 :   0.3333 0.3333-0.0000  plane waves:     463
 k-point  49 :   0.0476 0.0476 0.0476  plane waves:     459
 k-point  50 :   0.0952 0.0476 0.0476  plane waves:     461
 k-point  51 :   0.1429 0.0476 0.0476  plane waves:     464
 k-point  52 :   0.1905 0.0476 0.0476  plane waves:     462
 k-point  53 :   0.2381 0.0476 0.0476  plane waves:     462
 k-point  54 :   0.2857 0.0476 0.0476  plane waves:     462
 k-point  55 :   0.3333 0.0476 0.0476  plane waves:     468
 k-point  56 :   0.3810 0.0476 0.0476  plane waves:     470
 k-point  57 :   0.4286 0.0476 0.0476  plane waves:     466
 k-point  58 :  -0.0476 0.0476 0.0476  plane waves:     450
 k-point  59 :   0.0952 0.0952 0.0476  plane waves:     463
 k-point  60 :   0.1429 0.0952 0.0476  plane waves:     464
 k-point  61 :   0.1905 0.0952 0.0476  plane waves:     465
 k-point  62 :   0.2381 0.0952 0.0476  plane waves:     464
 k-point  63 :   0.2857 0.0952 0.0476  plane waves:     467
 k-point  64 :   0.3333 0.0952 0.0476  plane waves:     471
 k-point  65 :   0.3810 0.0952 0.0476  plane waves:     465
 k-point  66 :   0.4286 0.0952 0.0476  plane waves:     464
 k-point  67 :  -0.0952 0.0952 0.0476  plane waves:     455
 k-point  68 :   0.1429 0.1429 0.0476  plane waves:     465
 k-point  69 :   0.1905 0.1429 0.0476  plane waves:     467
 k-point  70 :   0.2381 0.1429 0.0476  plane waves:     466
 k-point  71 :   0.2857 0.1429 0.0476  plane waves:     470
 k-point  72 :   0.3333 0.1429 0.0476  plane waves:     469
 k-point  73 :   0.3810 0.1429 0.0476  plane waves:     473
 k-point  74 :  -0.1429 0.1429 0.0476  plane waves:     465
 k-point  75 :  -0.0952 0.1429 0.0476  plane waves:     459
 k-point  76 :   0.1905 0.1905 0.0476  plane waves:     465
 k-point  77 :   0.2381 0.1905 0.0476  plane waves:     468
 k-point  78 :   0.2857 0.1905 0.0476  plane waves:     472
 k-point  79 :   0.3333 0.1905 0.0476  plane waves:     469
 k-point  80 :   0.3810 0.1905 0.0476  plane waves:     470
 k-point  81 :  -0.1905 0.1905 0.0476  plane waves:     463
 k-point  82 :  -0.1429 0.1905 0.0476  plane waves:     463
 k-point  83 :   0.2381 0.2381 0.0476  plane waves:     471
 k-point  84 :   0.2857 0.2381 0.0476  plane waves:     470
 k-point  85 :   0.3333 0.2381 0.0476  plane waves:     467
 k-point  86 :  -0.2381 0.2381 0.0476  plane waves:     462
 k-point  87 :  -0.1905 0.2381 0.0476  plane waves:     462
 k-point  88 :  -0.1429 0.2381 0.0476  plane waves:     464
 k-point  89 :   0.2857 0.2857 0.0476  plane waves:     467
 k-point  90 :   0.3333 0.2857 0.0476  plane waves:     467
 k-point  91 :  -0.2857 0.2857 0.0476  plane waves:     462
 k-point  92 :  -0.2381 0.2857 0.0476  plane waves:     463
 k-point  93 :  -0.1905 0.2857 0.0476  plane waves:     459
 k-point  94 :  -0.3333 0.3333 0.0476  plane waves:     464
 k-point  95 :  -0.2857 0.3333 0.0476  plane waves:     465
 k-point  96 :  -0.2381 0.3333 0.0476  plane waves:     459
 k-point  97 :  -0.1905 0.3333 0.0476  plane waves:     459
 k-point  98 :  -0.3810 0.3810 0.0476  plane waves:     465
 k-point  99 :  -0.3333 0.3810 0.0476  plane waves:     465
 k-point 100 :  -0.2857 0.3810 0.0476  plane waves:     462
 k-point 101 :  -0.2381 0.3810 0.0476  plane waves:     459
 k-point 102 :  -0.4286 0.4286 0.0476  plane waves:     462
 k-point 103 :  -0.3810 0.4286 0.0476  plane waves:     465
 k-point 104 :  -0.3333 0.4286 0.0476  plane waves:     463
 k-point 105 :  -0.2857 0.4286 0.0476  plane waves:     464
[...]
     15      31.9238      0.00000
     16      34.9715      0.00000

 k-point   270 :      -0.3333    0.3333    0.3333
  band No.  band energies     occupation 
      1     -43.0919      2.00000
      2     -19.5821      2.00000
      3     -19.3882      2.00000
      4     -19.3882      2.00000
      5       8.5396      2.00000
      6       8.6535      2.00000
      7      13.1623      0.00000
      8      13.1623      0.00000
      9      14.8114      0.00000
     10      16.6201      0.00000
     11      25.6391      0.00000
     12      25.6391      0.00000
     13      26.8393      0.00000
     14      30.1489      0.00000
     15      35.8061      0.00000
     16      35.8444      0.00000

 k-point   271 :      -0.3810    0.3810    0.3333
  band No.  band energies     occupation 
      1     -43.0707      2.00000
      2     -19.6282      2.00000
      3     -19.4408      2.00000
      4     -19.4164      2.00000
      5       8.2500      2.00000
      6       8.4700      2.00000
      7      13.4375      0.00000
      8      13.5461      0.00000
      9      15.3777      0.00000
     10      17.2656      0.00000
     11      24.3443      0.00000
     12      24.5690      0.00000
     13      27.6855      0.00000
     14      30.3839      0.00000
     15      34.5368      0.00000
     16      35.2120      0.00000

 k-point   272 :      -0.4286    0.4286    0.3333
  band No.  band energies     occupation 
      1     -43.0553      2.00000
      2     -19.6841      2.00000
      3     -19.4784      2.00000
      4     -19.4131      2.00000
      5       8.0544      2.00000
      6       8.3117      2.00000
      7      13.5006      0.00000
      8      13.7598      0.00000
      9      16.0953      0.00000
     10      18.2474      0.00000
     11      22.9035      0.00000
     12      23.6106      0.00000
     13      28.6150      0.00000
     14      30.4500      0.00000
     15      33.4928      0.00000
     16      34.7777      0.00000

 k-point   273 :      -0.3810    0.4286    0.3333
  band No.  band energies     occupation 
      1     -43.0528      2.00000
      2     -19.6521      2.00000
      3     -19.5025      2.00000
      4     -19.4343      2.00000
      5       8.0180      2.00000
      6       8.2397      2.00000
      7      13.5884      0.00000
      8      14.1870      0.00000
      9      15.7888      0.00000
     10      18.0377      0.00000
     11      23.2628      0.00000
     12      23.4821      0.00000
     13      28.4937      0.00000
     14      30.5818      0.00000
     15      33.3390      0.00000
     16      34.6869      0.00000

 k-point   274 :      -0.4762    0.4762    0.3333
  band No.  band energies     occupation 
      1     -43.0473      2.00000
      2     -19.7172      2.00000
      3     -19.4980      2.00000
      4     -19.4073      2.00000
      5       7.9563      2.00000
      6       8.2228      2.00000
      7      13.5059      0.00000
      8      13.8402      0.00000
      9      16.6027      0.00000
     10      19.3397      0.00000
     11      21.5942      0.00000
     12      23.0005      0.00000
     13      29.4013      0.00000
     14      30.3154      0.00000
     15      32.8324      0.00000
     16      34.5618      0.00000

 k-point   275 :      -0.4286    0.4762    0.3333
  band No.  band energies     occupation 
      1     -43.0414      2.00000
      2     -19.6792      2.00000
      3     -19.5439      2.00000
      4     -19.4311      2.00000
      5       7.8886      2.00000
      6       8.0697      2.00000
      7      13.6039      0.00000
      8      14.5938      0.00000
      9      16.2285      0.00000
     10      19.1040      0.00000
     11      22.0281      0.00000
     12      22.6007      0.00000
     13      29.3897      0.00000
     14      30.6031      0.00000
     15      32.3764      0.00000
     16      34.3653      0.00000

 k-point   276 :      -0.4762   -0.4762    0.3333
  band No.  band energies     occupation 
      1     -43.0375      2.00000
      2     -19.6903      2.00000
      3     -19.5576      2.00000
      4     -19.4287      2.00000
      5       7.8496      2.00000
      6       8.0055      2.00000
      7      13.6022      0.00000
      8      14.7116      0.00000
      9      16.4456      0.00000
     10      19.9522      0.00000
     11      21.1213      0.00000
     12      22.2530      0.00000
     13      30.0010      0.00000
     14      30.4191      0.00000
     15      31.9448      0.00000
     16      34.2574      0.00000

 k-point   277 :      -0.4286   -0.4762    0.3333
  band No.  band energies     occupation 
      1     -43.0342      2.00000
      2     -19.6601      2.00000
      3     -19.6062      2.00000
      4     -19.4288      2.00000
      5       7.8352      2.00000
      6       7.9088      2.00000
      7      13.5897      0.00000
      8      15.3777      0.00000
      9      16.0596      0.00000
     10      20.2016      0.00000
     11      21.4411      0.00000
     12      21.4834      0.00000
     13      30.2201      0.00000
     14      30.6417      0.00000
     15      31.4394      0.00000
     16      34.1634      0.00000

 k-point   278 :      -0.3810    0.3810    0.3810
  band No.  band energies     occupation 
      1     -43.0504      2.00000
      2     -19.6134      2.00000
      3     -19.4943      2.00000
      4     -19.4943      2.00000
      5       7.9611      2.00000
      6       8.1840      2.00000
      7      14.1557      0.00000
      8      14.1557      0.00000
      9      15.5406      0.00000
     10      17.7305      0.00000
     11      23.5272      0.00000
     12      23.5272      0.00000
     13      28.2860      0.00000
     14      30.7062      0.00000
     15      33.2657      0.00000
     16      34.5614      0.00000

 k-point   279 :      -0.4286    0.4286    0.3810
  band No.  band energies     occupation 
      1     -43.0358      2.00000
      2     -19.6411      2.00000
      3     -19.5324      2.00000
      4     -19.5110      2.00000
      5       7.7715      2.00000
      6       7.9504      2.00000
      7      14.4872      0.00000
      8      14.5834      0.00000
      9      16.0383      0.00000
     10      18.5116      0.00000
     11      22.3829      0.00000
     12      22.5756      0.00000
     13      29.0839      0.00000
     14      30.8588      0.00000
     15      32.2334      0.00000
     16      34.0926      0.00000

 k-point   280 :      -0.4762    0.4762    0.3810
  band No.  band energies     occupation 
      1     -43.0281      2.00000
      2     -19.6689      2.00000
      3     -19.5523      2.00000
      4     -19.5060      2.00000
      5       7.6881      2.00000
      6       7.8119      2.00000
      7      14.5666      0.00000
      8      14.7772      0.00000
      9      16.5179      0.00000
     10      19.5129      0.00000
     11      21.1906      0.00000
     12      21.9496      0.00000
     13      29.8670      0.00000
     14      30.7559      0.00000
     15      31.5558      0.00000
     16      33.8529      0.00000

 k-point   281 :      -0.4286    0.4762    0.3810
  band No.  band energies     occupation 
      1     -43.0248      2.00000
      2     -19.6455      2.00000
      3     -19.5800      2.00000
      4     -19.5190      2.00000
      5       7.6359      2.00000
      6       7.7429      2.00000
      7      14.6510      0.00000
      8      15.3164      0.00000
      9      16.2799      0.00000
     10      19.3033      0.00000
     11      21.5461      0.00000
     12      21.5760      0.00000
     13      29.7308      0.00000
     14      30.9754      0.00000
     15      31.3923      0.00000
     16      33.7287      0.00000

 k-point   282 :      -0.4762   -0.4762    0.3810
  band No.  band energies     occupation 
      1     -43.0211      2.00000
      2     -19.6479      2.00000
      3     -19.6005      2.00000
      4     -19.5167      2.00000
      5       7.6055      2.00000
      6       7.6556      2.00000
      7      14.6763      0.00000
      8      15.6319      0.00000
      9      16.3730      0.00000
     10      20.1000      0.00000
     11      20.7018      0.00000
     12      21.2118      0.00000
     13      30.1607      0.00000
     14      30.8383      0.00000
     15      31.0877      0.00000
     16      33.6064      0.00000

 k-point   283 :      -0.4286    0.4286    0.4286
  band No.  band energies     occupation 
      1     -43.0216      2.00000
      2     -19.6194      2.00000
      3     -19.5710      2.00000
      4     -19.5710      2.00000
      5       7.5689      2.00000
      6       7.6855      2.00000
      7      15.2950      0.00000
      8      15.2950      0.00000
      9      16.1248      0.00000
     10      18.9495      0.00000
     11      21.6032      0.00000
     12      21.6032      0.00000
     13      29.4815      0.00000
     14      31.1075      0.00000
     15      31.4156      0.00000
     16      33.5935      0.00000

 k-point   284 :      -0.4762    0.4762    0.4286
  band No.  band energies     occupation 
      1     -43.0142      2.00000
      2     -19.6339      2.00000
      3     -19.5911      2.00000
      4     -19.5763      2.00000
      5       7.4789      2.00000
      6       7.5317      2.00000
      7      15.5891      0.00000
      8      15.6912      0.00000
      9      16.4594      0.00000
     10      19.6378      0.00000
     11      20.6935      0.00000
     12      20.9321      0.00000
     13      29.6754      0.00000
     14      31.0846      0.00000
     15      31.1972      0.00000
     16      33.3353      0.00000

 k-point   285 :      -0.4762   -0.4762    0.4286
  band No.  band energies     occupation 
      1     -43.0106      2.00000
      2     -19.6207      2.00000
      3     -19.6207      2.00000
      4     -19.5793      2.00000
      5       7.4424      2.00000
      6       7.4424      2.00000
      7      15.6945      0.00000
      8      16.3263      0.00000
      9      16.3263      0.00000
     10      20.1677      0.00000
     11      20.1677      0.00000
     12      20.4338      0.00000
     13      29.5488      0.00000
     14      31.1842      0.00000
     15      31.1842      0.00000
     16      33.2027      0.00000

 k-point   286 :      -0.4762    0.4762    0.4762
  band No.  band energies     occupation 
      1     -43.0070      2.00000
      2     -19.6170      2.00000
      3     -19.6113      2.00000
      4     -19.6113      2.00000
      5       7.3708      2.00000
      6       7.3856      2.00000
      7      16.3103      0.00000
      8      16.3103      0.00000
      9      16.4552      0.00000
     10      19.8192      0.00000
     11      20.1866      0.00000
     12      20.1866      0.00000
     13      29.2742      0.00000
     14      31.2690      0.00000
     15      31.3188      0.00000
     16      33.0664      0.00000


--------------------------------------------------------------------------------------------------------


 soft charge-density along one line, spin component           1
         0         1         2         3         4         5         6         7         8         9
 total charge-density along one line
 
 pseudopotential strength for first ion, spin component:           1
  5.504 -19.549  -0.000   0.000   0.000  -0.000  -0.000  -0.000
-19.549   8.534   0.000   0.000   0.000   0.000  -0.000  -0.000
 -0.000   0.000  -9.424  -0.000  -0.000   5.528   0.000   0.000
  0.000   0.000  -0.000  -9.424  -0.000   0.000   5.528   0.000
  0.000   0.000  -0.000  -0.000  -9.424   0.000   0.000   5.528
 -0.000   0.000   5.528   0.000   0.000   8.263  -0.000  -0.000
 -0.000  -0.000   0.000   5.528   0.000  -0.000   8.263  -0.000
 -0.000  -0.000   0.000   0.000   5.528  -0.000  -0.000   8.263
 -0.000  -0.000   0.000  -0.000   0.000  -0.000   0.000   0.000
 -0.000  -0.000   0.000   0.000  -0.000  -0.000  -0.000   0.000
 -0.000  -0.000  -0.000   0.000  -0.000   0.000  -0.000   0.000
 -0.000  -0.000  -0.000   0.000   0.000   0.000  -0.000  -0.000
  0.000   0.000  -0.000  -0.000   0.000   0.000  -0.000  -0.000
 -0.000  -0.000   0.000  -0.000   0.000  -0.000   0.000   0.000
 -0.000  -0.000   0.000  -0.000  -0.000  -0.000  -0.000   0.000
 -0.000  -0.000   0.000   0.000  -0.000   0.000  -0.000   0.000
 -0.000  -0.000  -0.000   0.000   0.000   0.000  -0.000  -0.000
  0.000   0.000  -0.000   0.000   0.000  -0.000  -0.000  -0.000
 total augmentation occupancy for first ion, spin component:           1
  1.997  -0.038   0.000   0.000   0.000   0.000   0.000   0.000  -0.000   0.000   0.000  -0.000  -0.000   0.000  -0.000  -0.000
 -0.038   1.461   0.000   0.000   0.000   0.000   0.000   0.000  -0.000  -0.000   0.000   0.000  -0.000   0.000  -0.000  -0.000
  0.000   0.000   1.998   0.000  -0.000  -0.030  -0.000   0.000   0.000   0.000   0.000   0.000   0.000   0.000   0.000   0.000
  0.000   0.000   0.000   1.998  -0.000  -0.000  -0.030   0.000   0.000   0.000   0.000   0.000   0.000   0.000   0.000   0.000
  0.000   0.000  -0.000  -0.000   1.998   0.000   0.000  -0.030   0.000   0.000   0.000   0.000   0.000   0.000   0.000   0.000
  0.000   0.000  -0.030  -0.000   0.000   0.062   0.000  -0.000   0.000   0.000   0.000   0.000   0.000   0.000   0.000   0.000
  0.000   0.000  -0.000  -0.030   0.000   0.000   0.062  -0.000   0.000   0.000   0.000   0.000   0.000   0.000   0.000   0.000
  0.000   0.000   0.000   0.000  -0.030  -0.000   0.000   0.062   0.000   0.000   0.000   0.000   0.000   0.000   0.000   0.000
 -0.000  -0.000   0.000   0.000   0.000   0.000   0.000   0.000   2.337  -0.000   0.000   0.000  -0.000  -0.821   0.000  -0.000
  0.000   0.000   0.000   0.000   0.000   0.000   0.000   0.000  -0.000   2.337   0.000  -0.000  -0.000   0.000  -0.821  -0.000
  0.000   0.000   0.000   0.000   0.000   0.000   0.000   0.000   0.000   0.000   2.019   0.000   0.000  -0.000  -0.000  -0.779
 -0.000  -0.000   0.000   0.000   0.000   0.000   0.000   0.000   0.000  -0.000   0.000   2.337  -0.000  -0.000   0.000  -0.000
 -0.000  -0.000   0.000   0.000   0.000   0.000   0.000   0.000  -0.000  -0.000   0.000  -0.000   2.019   0.000   0.000  -0.000
  0.000   0.000   0.000   0.000   0.000   0.000   0.000   0.000  -0.821   0.000  -0.000  -0.000   0.000   0.303  -0.000   0.000
 -0.000  -0.000   0.000   0.000   0.000   0.000   0.000   0.000   0.000  -0.821  -0.000   0.000   0.000  -0.000   0.303   0.000
 -0.000  -0.000   0.000   0.000   0.000   0.000   0.000   0.000  -0.000  -0.000  -0.779  -0.000  -0.000   0.000   0.000   0.310
  0.000   0.000   0.000   0.000   0.000   0.000   0.000   0.000  -0.000   0.000  -0.000  -0.821   0.000   0.000  -0.000  -0.000
  0.000   0.000   0.000   0.000   0.000   0.000   0.000   0.000   0.000   0.000  -0.000   0.000  -0.779  -0.000  -0.000   0.000


------------------------ aborting loop because EDIFF is reached ----------------------------------------


    CHARGE:  cpu time      0.0367: real time      0.0370
    FORLOC:  cpu time      0.0004: real time      0.0010
    FORNL :  cpu time      0.0185: real time      0.0187
    STRESS:  cpu time      0.1273: real time      0.1283
    FORCOR:  cpu time      0.0081: real time      0.0082
    FORHAR:  cpu time      0.0019: real time      0.0019
    MIXING:  cpu time      0.0004: real time      0.0004
    OFIELD:  cpu time      0.0000: real time      0.0000

  FORCE on cell =-STRESS in cart. coord.  units (eV):
  Direction    XX          YY          ZZ          XY          YZ          ZX
  --------------------------------------------------------------------------------------
  Alpha Z    81.63060    81.63060    81.63060
  Ewald    -444.89767  -444.89767  -444.89767    -0.00000    -0.00000     0.00000
  Hartree    78.26113    78.26113    78.26113    -0.00000    -0.00000    -0.00000
  E(xc)     -59.21589   -59.21589   -59.21589    -0.00000    -0.00000    -0.00000
  Local      84.79289    84.79289    84.79289     0.00000     0.00000     0.00000
  n-local    -8.26464   -13.55404   -14.93052    -4.31646     6.38909     4.56737
  augment    18.33328    18.33328    18.33328    -0.00000    -0.00000    -0.00000
  Kinetic   249.93381   252.53881   257.06693     5.52479    -8.06954    -4.47794
  Fock        0.00000     0.00000     0.00000     0.00000     0.00000     0.00000
  -------------------------------------------------------------------------------------
  Total      -0.16554    -0.16554    -0.16554     0.00000    -0.00000    -0.00000
  in kB     -14.52539   -14.52539   -14.52539     0.00000    -0.00000    -0.00000
  external pressure =      -14.53 kB  Pullay stress =        0.00 kB


 VOLUME and BASIS-vectors are now :
 -----------------------------------------------------------------------------
  energy-cutoff  :      500.00
  volume of cell :       18.26
      direct lattice vectors                 reciprocal lattice vectors
    -1.658866000  1.658866000  1.658866000    -0.000000000  0.301410723  0.301410723
     1.658866000 -1.658866000  1.658866000     0.301410723 -0.000000000  0.301410723
     1.658866000  1.658866000 -1.658866000     0.301410723  0.301410723 -0.000000000

  length of vectors
     2.873240195  2.873240195  2.873240195     0.426259132  0.426259132  0.426259132


 FORCES acting on ions
    electron-ion (+dipol)            ewald-force                    non-local-force                 convergence-correction
 -----------------------------------------------------------------------------------------------
   -.171E-14 0.384E-14 0.204E-14   0.171E-14 0.304E-14 0.509E-14   -.779E-23 0.379E-23 -.480E-24   0.133E-13 0.576E-14 0.987E-14
 -----------------------------------------------------------------------------------------------
   -.171E-14 0.384E-14 0.204E-14   0.171E-14 0.304E-14 0.509E-14   -.779E-23 0.379E-23 -.480E-24   0.133E-13 0.576E-14 0.987E-14
 
 
 POSITION                                       TOTAL-FORCE (eV/Angst)
 -----------------------------------------------------------------------------------
      0.00000      0.00000      0.00000         0.000000     -0.000000      0.000000
 -----------------------------------------------------------------------------------
    total drift:                                0.000000      0.000000      0.000000


--------------------------------------------------------------------------------------------------------



  FREE ENERGIE OF THE ION-ELECTRON SYSTEM (eV)
  ---------------------------------------------------
  free  energy   TOTEN  =       -10.21506695 eV

  energy  without entropy=      -10.21315668  energy(sigma->0) =      -10.21411182
 


--------------------------------------------------------------------------------------------------------


    POTLOK:  cpu time      0.0116: real time      0.0118


--------------------------------------------------------------------------------------------------------


     LOOP+:  cpu time     28.5554: real time     29.8064
    4ORBIT:  cpu time      0.0000: real time      0.0000

 total amount of memory used by VASP MPI-rank0    33784. kBytes
=======================================================================

   base      :      30000. kBytes
   nonl-proj :       2636. kBytes
   fftplans  :        145. kBytes
   grid      :        183. kBytes
   one-center:         15. kBytes
   wavefun   :        805. kBytes
 
  
  
 General timing and accounting informations for this job:
 ========================================================
  
                  Total CPU time used (sec):       29.729
                            User time (sec):       25.411
                          System time (sec):        4.317
                         Elapsed time (sec):       35.578
  
                   Maximum memory used (kb):      139368.
                   Average memory used (kb):          N/A
  
                          Minor page faults:        15287
                          Major page faults:         1672
                 Voluntary context switches:          735
