 vasp.6.3.0 20Jan22 (build Oct 14 2024 11:24:38) complex                        
  
 executed on             LinuxIFC date 2025.05.02  12:30:52
 running on   64 total cores
 distrk:  each k-point on   64 cores,    1 groups
 distr:  one band on NCORE=   8 cores,    8 groups


--------------------------------------------------------------------------------------------------------


 INCAR:
   ISTART = 0            (Read existing wavefunction
   ISPIN = 1            (Non-Spin polarised DFT)
   LREAL = .FALSE.       (Projection operators: automatic)
   ENCUT = 500          (Cut-off energy for plane wave basis set, in eV)
   PREC = Accurate     (Precision level)
   LWAVE = .FALSE.       (Write WAVECAR or not)
   LCHARG = .FALSE.       (Write CHGCAR or not)
   ISYM = 0             (0: disable symmetry)
   SYMPREC = 1E-06         (Symmetry detection precision, default\=1E-5)
   NSW = 0
   IBRION = -1
   ISMEAR = 0            (gaussian smearing method)
   SIGMA = 0.05         (please check the width of the smearing)
   NELM = 60           (Max electronic SCF steps)
   EDIFF = 1E-06        (SCF energy convergence
   NCORE = 8             (square root of total cores)

 POTCAR:    PAW_PBE Nb_sv 25May2007               
 POTCAR:    PAW_PBE Fe 06Sep2000                  
 POTCAR:    PAW_PBE Sb 06Sep2000                  
 POTCAR:    PAW_PBE Nb_sv 25May2007               
   VRHFIN =Nb: 4p5s4d                                                                               
   LEXCH  = PE                                                                                      
   EATOM  =  1555.1913 eV,  114.3033 Ry                                                             
                                                                                                    
   TITEL  = PAW_PBE Nb_sv 25May2007                                                                 
   LULTRA =        F    use ultrasoft PP ?                                                          
   IUNSCR =        1    unscreen: 0-lin 1-nonlin 2-no                                               
   RPACOR =    1.800    partial core radius                                                         
   POMASS =   92.910; ZVAL   =   13.000    mass and valenz                                          
   RCORE  =    2.400    outmost cutoff radius                                                       
   RWIGS  =    2.400; RWIGS  =    1.270    wigner-seitz radius (au A)                               
   ENMAX  =  293.235; ENMIN  =  219.927 eV                                                          
   ICORE  =        3    local potential                                                             
   LCOR   =        T    correct aug charges                                                         
   LPAW   =        T    paw PP                                                                      
   EAUG   =  455.659                                                                                
   DEXC   =    0.000                                                                                
   RMAX   =    2.456    core radius for proj-oper                                                   
   RAUG   =    1.300    factor for augmentation sphere                                              
   RDEP   =    2.451    radius for radial grids                                                     
   RDEPT  =    1.956    core radius for aug-charge                                                  
                                                                                                    
   Atomic configuration                                                                             
   11 entries                                                                                       
     n  l   j            E        occ.                                                              
     1  0  0.50    -18805.2457   2.0000                                                             
     2  0  0.50     -2630.2869   2.0000                                                             
     2  1  1.50     -2348.4046   6.0000                                                             
     3  0  0.50      -438.8757   2.0000                                                             
     3  1  1.50      -346.7588   6.0000                                                             
     3  2  2.50      -196.2560  10.0000                                                             
     4  0  0.50       -58.3859   2.0000                                                             
     5  0  0.50        -3.9816   1.0000                                                             
     4  1  1.50       -34.5141   6.0000                                                             
     4  2  2.50        -3.0408   4.0000                                                             
     4  3  2.50        -1.3606   0.0000                                                             
   Description                                                                                      
     l       E           TYP  RCUT    TYP  RCUT                                                     
     0    -58.3859094     23  2.200                                                                 
     0     -3.9816262     23  2.200                                                                 
     1    -34.5140738     23  2.200                                                                 
     1     13.6058260     23  2.200                                                                 
     2     -3.0408010     23  2.200                                                                 
     2     -0.1283038     23  2.200                                                                 
     3     -1.3605826     23  2.400                                                                 
  local pseudopotential read in
  partial core-charges read in
  partial kinetic energy density read in
  atomic valenz-charges read in
  non local Contribution for L=           0  read in
    real space projection operators read in
  non local Contribution for L=           0  read in
    real space projection operators read in
  non local Contribution for L=           1  read in
    real space projection operators read in
  non local Contribution for L=           1  read in
    real space projection operators read in
  non local Contribution for L=           2  read in
    real space projection operators read in
  non local Contribution for L=           2  read in
    real space projection operators read in
    PAW grid and wavefunctions read in
 
   number of l-projection  operators is LMAX  =           6
   number of lm-projection operators is LMMAX =          18
 
 POTCAR:    PAW_PBE Fe 06Sep2000                  
   VRHFIN =Fe:  d7 s1                                                                               
   LEXCH  = PE                                                                                      
   EATOM  =   594.3153 eV,   43.6809 Ry                                                             
                                                                                                    
   TITEL  = PAW_PBE Fe 06Sep2000                                                                    
   LULTRA =        F    use ultrasoft PP ?                                                          
   IUNSCR =        1    unscreen: 0-lin 1-nonlin 2-no                                               
   RPACOR =    2.000    partial core radius                                                         
   POMASS =   55.847; ZVAL   =    8.000    mass and valenz                                          
   RCORE  =    2.300    outmost cutoff radius                                                       
   RWIGS  =    2.460; RWIGS  =    1.302    wigner-seitz radius (au A)                               
   ENMAX  =  267.882; ENMIN  =  200.911 eV                                                          
   RCLOC  =    1.701    cutoff for local pot                                                        
   LCOR   =        T    correct aug charges                                                         
   LPAW   =        T    paw PP                                                                      
   EAUG   =  511.368                                                                                
   DEXC   =    0.000                                                                                
   RMAX   =    2.356    core radius for proj-oper                                                   
   RAUG   =    1.300    factor for augmentation sphere                                              
   RDEP   =    2.442    radius for radial grids                                                     
   RDEPT  =    1.890    core radius for aug-charge                                                  
                                                                                                    
   Atomic configuration                                                                             
    9 entries                                                                                       
     n  l   j            E        occ.                                                              
     1  0  0.50     -6993.8440   2.0000                                                             
     2  0  0.50      -814.6047   2.0000                                                             
     2  1  1.50      -693.3689   6.0000                                                             
     3  0  0.50       -89.4732   2.0000                                                             
     3  1  1.50       -55.6373   6.0000                                                             
     3  2  2.50        -3.8151   7.0000                                                             
     4  0  0.50        -4.2551   1.0000                                                             
     4  1  1.50        -3.4015   0.0000                                                             
     4  3  2.50        -1.3606   0.0000                                                             
   Description                                                                                      
     l       E           TYP  RCUT    TYP  RCUT                                                     
     2     -3.8151135     23  2.300                                                                 
     2     -5.1756961     23  2.300                                                                 
     0     -4.2550963     23  2.300                                                                 
     0      7.2035603     23  2.300                                                                 
     1     -2.7211652     23  2.300                                                                 
     1     18.4316424     23  2.300                                                                 
  local pseudopotential read in
  partial core-charges read in
  partial kinetic energy density read in
  atomic valenz-charges read in
  non local Contribution for L=           2  read in
    real space projection operators read in
  non local Contribution for L=           2  read in
    real space projection operators read in
  non local Contribution for L=           0  read in
    real space projection operators read in
  non local Contribution for L=           0  read in
    real space projection operators read in
  non local Contribution for L=           1  read in
    real space projection operators read in
  non local Contribution for L=           1  read in
    real space projection operators read in
    PAW grid and wavefunctions read in
 
   number of l-projection  operators is LMAX  =           6
   number of lm-projection operators is LMMAX =          18
 
 POTCAR:    PAW_PBE Sb 06Sep2000                  
   VRHFIN =Sb: s2p3                                                                                 
   LEXCH  = PE                                                                                      
   EATOM  =   149.9515 eV,   11.0211 Ry                                                             
                                                                                                    
   TITEL  = PAW_PBE Sb 06Sep2000                                                                    
   LULTRA =        F    use ultrasoft PP ?                                                          
   IUNSCR =        1    unscreen: 0-lin 1-nonlin 2-no                                               
   RPACOR =    2.200    partial core radius                                                         
   POMASS =  121.750; ZVAL   =    5.000    mass and valenz                                          
   RCORE  =    2.300    outmost cutoff radius                                                       
   RWIGS  =    2.980; RWIGS  =    1.577    wigner-seitz radius (au A)                               
   ENMAX  =  172.069; ENMIN  =  129.052 eV                                                          
   ICORE  =        3    local potential                                                             
   LCOR   =        T    correct aug charges                                                         
   LPAW   =        T    paw PP                                                                      
   EAUG   =  380.513                                                                                
   DEXC   =    0.000                                                                                
   RMAX   =    2.346    core radius for proj-oper                                                   
   RAUG   =    1.300    factor for augmentation sphere                                              
   RDEP   =    2.360    radius for radial grids                                                     
   RDEPT  =    2.192    core radius for aug-charge                                                  
                                                                                                    
   Atomic configuration                                                                             
   13 entries                                                                                       
     n  l   j            E        occ.                                                              
     1  0  0.50    -30298.2797   2.0000                                                             
     2  0  0.50     -4610.2252   2.0000                                                             
     2  1  1.50     -4138.3407   6.0000                                                             
     3  0  0.50      -903.8815   2.0000                                                             
     3  1  1.50      -750.1337   6.0000                                                             
     3  2  2.50      -515.7092  10.0000                                                             
     4  0  0.50      -148.8034   2.0000                                                             
     4  1  1.50      -101.7581   6.0000                                                             
     4  2  2.50       -33.5048  10.0000                                                             
     5  0  0.50       -12.8298   2.0000                                                             
     5  1  0.50        -4.8276   3.0000                                                             
     5  2  1.50        -4.0817   0.0000                                                             
     4  3  2.50        -4.0817   0.0000                                                             
   Description                                                                                      
     l       E           TYP  RCUT    TYP  RCUT                                                     
     0    -12.8297861     23  2.300                                                                 
     0     13.6058260     23  2.300                                                                 
     1     -4.8275512     23  2.300                                                                 
     1     -0.7245443     23  2.300                                                                 
     2     -4.0817478     23  2.300                                                                 
     3     -1.3605826     23  2.300                                                                 
  local pseudopotential read in
  partial core-charges read in
  partial kinetic energy density read in
  atomic valenz-charges read in
  non local Contribution for L=           0  read in
    real space projection operators read in
  non local Contribution for L=           0  read in
    real space projection operators read in
  non local Contribution for L=           1  read in
    real space projection operators read in
  non local Contribution for L=           1  read in
    real space projection operators read in
  non local Contribution for L=           2  read in
    real space projection operators read in
    PAW grid and wavefunctions read in
 
   number of l-projection  operators is LMAX  =           5
   number of lm-projection operators is LMMAX =          13
 
 -----------------------------------------------------------------------------
|                                                                             |
|               ----> ADVICE to this user running VASP <----                  |
|                                                                             |
|     You have a (more or less) 'large supercell' and for larger cells it     |
|     might be more efficient to use real-space projection operators.         |
|     Therefore, try LREAL= Auto in the INCAR file.                           |
|     Mind: For very accurate calculation, you might also keep the            |
|     reciprocal projection scheme (i.e. LREAL=.FALSE.).                      |
|                                                                             |
 -----------------------------------------------------------------------------

  PAW_PBE Nb_sv 25May2007               :
 energy of atom  1       EATOM=-1555.1913
 kinetic energy error for atom=    0.0069 (will be added to EATOM!!)
  PAW_PBE Fe 06Sep2000                  :
 energy of atom  2       EATOM= -594.3153
 kinetic energy error for atom=    0.0026 (will be added to EATOM!!)
  PAW_PBE Sb 06Sep2000                  :
 energy of atom  3       EATOM= -149.9515
 kinetic energy error for atom=    0.0005 (will be added to EATOM!!)
 
 
 POSCAR: Perfect NbFeSb 2x2x2 supercell
  positions in direct lattice
  velocities in cartesian coordinates
 exchange correlation table for  LEXCH =        8
   RHO(1)=    0.500       N(1)  =     2000
   RHO(2)=  100.500       N(2)  =     4000
 


--------------------------------------------------------------------------------------------------------


 ion  position               nearest neighbor table
   1  0.000  0.000  0.000-  34 2.58  43 2.58  53 2.58  64 2.58  65 2.98  69 2.98  81 2.98  82 2.98
                            89 2.98  91 2.98
   2  0.000  0.000  0.500-  33 2.58  44 2.58  54 2.58  63 2.58  66 2.98  70 2.98  81 2.98  82 2.98
                            90 2.98  92 2.98
   3  0.000  0.500  0.000-  36 2.58  41 2.58  55 2.58  62 2.58  67 2.98  71 2.98  83 2.98  84 2.98
                            89 2.98  91 2.98
   4  0.000  0.500  0.500-  35 2.58  42 2.58  56 2.58  61 2.58  68 2.98  72 2.98  83 2.98  84 2.98
                            90 2.98  92 2.98
   5  0.500  0.000  0.000-  38 2.58  47 2.58  49 2.58  60 2.58  65 2.98  69 2.98  85 2.98  86 2.98
                            93 2.98  95 2.98
   6  0.500  0.000  0.500-  37 2.58  48 2.58  50 2.58  59 2.58  66 2.98  70 2.98  85 2.98  86 2.98
                            94 2.98  96 2.98
   7  0.500  0.500  0.000-  40 2.58  45 2.58  51 2.58  58 2.58  67 2.98  71 2.98  87 2.98  88 2.98
                            93 2.98  95 2.98
   8  0.500  0.500  0.500-  39 2.58  46 2.58  52 2.58  57 2.58  68 2.98  72 2.98  87 2.98  88 2.98
                            94 2.98  96 2.98
   9  0.000  0.250  0.250-  33 2.58  41 2.58  53 2.58  61 2.58  73 2.98  77 2.98  81 2.98  83 2.98
                            89 2.98  90 2.98
  10  0.000  0.250  0.750-  34 2.58  42 2.58  54 2.58  62 2.58  74 2.98  78 2.98  82 2.98  84 2.98
                            89 2.98  90 2.98
  11  0.000  0.750  0.250-  35 2.58  43 2.58  55 2.58  63 2.58  75 2.98  79 2.98  81 2.98  83 2.98
                            91 2.98  92 2.98
  12  0.000  0.750  0.750-  36 2.58  44 2.58  56 2.58  64 2.58  76 2.98  80 2.98  82 2.98  84 2.98
                            91 2.98  92 2.98
  13  0.500  0.250  0.250-  37 2.58  45 2.58  49 2.58  57 2.58  73 2.98  77 2.98  85 2.98  87 2.98
                            93 2.98  94 2.98
  14  0.500  0.250  0.750-  38 2.58  46 2.58  50 2.58  58 2.58  74 2.98  78 2.98  86 2.98  88 2.98
                            93 2.98  94 2.98
  15  0.500  0.750  0.250-  39 2.58  47 2.58  51 2.58  59 2.58  75 2.98  79 2.98  85 2.98  87 2.98
                            95 2.98  96 2.98
  16  0.500  0.750  0.750-  40 2.58  48 2.58  52 2.58  60 2.58  76 2.98  80 2.98  86 2.98  88 2.98
                            95 2.98  96 2.98
  17  0.250  0.000  0.250-  33 2.58  43 2.58  49 2.58  59 2.58  65 2.98  66 2.98  73 2.98  75 2.98
                            81 2.98  85 2.98
  18  0.250  0.000  0.750-  34 2.58  44 2.58  50 2.58  60 2.58  65 2.98  66 2.98  74 2.98  76 2.98
                            82 2.98  86 2.98
  19  0.250  0.500  0.250-  35 2.58  41 2.58  51 2.58  57 2.58  67 2.98  68 2.98  73 2.98  75 2.98
                            83 2.98  87 2.98
  20  0.250  0.500  0.750-  36 2.58  42 2.58  52 2.58  58 2.58  67 2.98  68 2.98  74 2.98  76 2.98
                            84 2.98  88 2.98
  21  0.750  0.000  0.250-  37 2.58  47 2.58  53 2.58  63 2.58  69 2.98  70 2.98  77 2.98  79 2.98
                            81 2.98  85 2.98
  22  0.750  0.000  0.750-  38 2.58  48 2.58  54 2.58  64 2.58  69 2.98  70 2.98  78 2.98  80 2.98
                            82 2.98  86 2.98
  23  0.750  0.500  0.250-  39 2.58  45 2.58  55 2.58  61 2.58  71 2.98  72 2.98  77 2.98  79 2.98
                            83 2.98  87 2.98
  24  0.750  0.500  0.750-  40 2.58  46 2.58  56 2.58  62 2.58  71 2.98  72 2.98  78 2.98  80 2.98
                            84 2.98  88 2.98
  25  0.250  0.250  0.000-  34 2.58  41 2.58  49 2.58  58 2.58  65 2.98  67 2.98  73 2.98  74 2.98
                            89 2.98  93 2.98
  26  0.250  0.250  0.500-  33 2.58  42 2.58  50 2.58  57 2.58  66 2.98  68 2.98  73 2.98  74 2.98
                            90 2.98  94 2.98
  27  0.250  0.750  0.000-  36 2.58  43 2.58  51 2.58  60 2.58  65 2.98  67 2.98  75 2.98  76 2.98
                            91 2.98  95 2.98
  28  0.250  0.750  0.500-  35 2.58  44 2.58  52 2.58  59 2.58  66 2.98  68 2.98  75 2.98  76 2.98
                            92 2.98  96 2.98
  29  0.750  0.250  0.000-  38 2.58  45 2.58  53 2.58  62 2.58  69 2.98  71 2.98  77 2.98  78 2.98
                            89 2.98  93 2.98
  30  0.750  0.250  0.500-  37 2.58  46 2.58  54 2.58  61 2.58  70 2.98  72 2.98  77 2.98  78 2.98
                            90 2.98  94 2.98
  31  0.750  0.750  0.000-  40 2.58  47 2.58  55 2.58  64 2.58  69 2.98  71 2.98  79 2.98  80 2.98
                            91 2.98  95 2.98
  32  0.750  0.750  0.500-  39 2.58  48 2.58  56 2.58  63 2.58  70 2.98  72 2.98  79 2.98  80 2.98
                            92 2.98  96 2.98
  33  0.125  0.125  0.375-   2 2.58   9 2.58  17 2.58  26 2.58  66 2.58  73 2.58  81 2.58  90 2.58

  34  0.125  0.125  0.875-   1 2.58  10 2.58  18 2.58  25 2.58  65 2.58  74 2.58  82 2.58  89 2.58

  35  0.125  0.625  0.375-   4 2.58  11 2.58  19 2.58  28 2.58  68 2.58  75 2.58  83 2.58  92 2.58

  36  0.125  0.625  0.875-   3 2.58  12 2.58  20 2.58  27 2.58  67 2.58  76 2.58  84 2.58  91 2.58

  37  0.625  0.125  0.375-   6 2.58  13 2.58  21 2.58  30 2.58  70 2.58  77 2.58  85 2.58  94 2.58

  38  0.625  0.125  0.875-   5 2.58  14 2.58  22 2.58  29 2.58  69 2.58  78 2.58  86 2.58  93 2.58

  39  0.625  0.625  0.375-   8 2.58  15 2.58  23 2.58  32 2.58  72 2.58  79 2.58  87 2.58  96 2.58

  40  0.625  0.625  0.875-   7 2.58  16 2.58  24 2.58  31 2.58  71 2.58  80 2.58  88 2.58  95 2.58

  41  0.125  0.375  0.125-   3 2.58   9 2.58  19 2.58  25 2.58  67 2.58  73 2.58  83 2.58  89 2.58

  42  0.125  0.375  0.625-   4 2.58  10 2.58  20 2.58  26 2.58  68 2.58  74 2.58  84 2.58  90 2.58

  43  0.125  0.875  0.125-   1 2.58  11 2.58  17 2.58  27 2.58  65 2.58  75 2.58  81 2.58  91 2.58

  44  0.125  0.875  0.625-   2 2.58  12 2.58  18 2.58  28 2.58  66 2.58  76 2.58  82 2.58  92 2.58

  45  0.625  0.375  0.125-   7 2.58  13 2.58  23 2.58  29 2.58  71 2.58  77 2.58  87 2.58  93 2.58

  46  0.625  0.375  0.625-   8 2.58  14 2.58  24 2.58  30 2.58  72 2.58  78 2.58  88 2.58  94 2.58

  47  0.625  0.875  0.125-   5 2.58  15 2.58  21 2.58  31 2.58  69 2.58  79 2.58  85 2.58  95 2.58

  48  0.625  0.875  0.625-   6 2.58  16 2.58  22 2.58  32 2.58  70 2.58  80 2.58  86 2.58  96 2.58

  49  0.375  0.125  0.125-   5 2.58  13 2.58  17 2.58  25 2.58  65 2.58  73 2.58  85 2.58  93 2.58

  50  0.375  0.125  0.625-   6 2.58  14 2.58  18 2.58  26 2.58  66 2.58  74 2.58  86 2.58  94 2.58

  51  0.375  0.625  0.125-   7 2.58  15 2.58  19 2.58  27 2.58  67 2.58  75 2.58  87 2.58  95 2.58

  52  0.375  0.625  0.625-   8 2.58  16 2.58  20 2.58  28 2.58  68 2.58  76 2.58  88 2.58  96 2.58

  53  0.875  0.125  0.125-   1 2.58   9 2.58  21 2.58  29 2.58  69 2.58  77 2.58  81 2.58  89 2.58

  54  0.875  0.125  0.625-   2 2.58  10 2.58  22 2.58  30 2.58  70 2.58  78 2.58  82 2.58  90 2.58

  55  0.875  0.625  0.125-   3 2.58  11 2.58  23 2.58  31 2.58  71 2.58  79 2.58  83 2.58  91 2.58

  56  0.875  0.625  0.625-   4 2.58  12 2.58  24 2.58  32 2.58  72 2.58  80 2.58  84 2.58  92 2.58

  57  0.375  0.375  0.375-   8 2.58  13 2.58  19 2.58  26 2.58  68 2.58  73 2.58  87 2.58  94 2.58

  58  0.375  0.375  0.875-   7 2.58  14 2.58  20 2.58  25 2.58  67 2.58  74 2.58  88 2.58  93 2.58

  59  0.375  0.875  0.375-   6 2.58  15 2.58  17 2.58  28 2.58  66 2.58  75 2.58  85 2.58  96 2.58

  60  0.375  0.875  0.875-   5 2.58  16 2.58  18 2.58  27 2.58  65 2.58  76 2.58  86 2.58  95 2.58

  61  0.875  0.375  0.375-   4 2.58   9 2.58  23 2.58  30 2.58  72 2.58  77 2.58  83 2.58  90 2.58

  62  0.875  0.375  0.875-   3 2.58  10 2.58  24 2.58  29 2.58  71 2.58  78 2.58  84 2.58  89 2.58

  63  0.875  0.875  0.375-   2 2.58  11 2.58  21 2.58  32 2.58  70 2.58  79 2.58  81 2.58  92 2.58

  64  0.875  0.875  0.875-   1 2.58  12 2.58  22 2.58  31 2.58  69 2.58  80 2.58  82 2.58  91 2.58

  65  0.250  0.000  0.000-  34 2.58  43 2.58  49 2.58  60 2.58  25 2.98  27 2.98   1 2.98   5 2.98
                            17 2.98  18 2.98
  66  0.250  0.000  0.500-  33 2.58  44 2.58  50 2.58  59 2.58  26 2.98  28 2.98   2 2.98   6 2.98
                            17 2.98  18 2.98
  67  0.250  0.500  0.000-  36 2.58  41 2.58  51 2.58  58 2.58  25 2.98  27 2.98   3 2.98   7 2.98
                            19 2.98  20 2.98
  68  0.250  0.500  0.500-  35 2.58  42 2.58  52 2.58  57 2.58  26 2.98  28 2.98   4 2.98   8 2.98
                            19 2.98  20 2.98
  69  0.750  0.000  0.000-  38 2.58  47 2.58  53 2.58  64 2.58  29 2.98  31 2.98   1 2.98   5 2.98
                            21 2.98  22 2.98
  70  0.750  0.000  0.500-  37 2.58  48 2.58  54 2.58  63 2.58  30 2.98  32 2.98   2 2.98   6 2.98
                            21 2.98  22 2.98
  71  0.750  0.500  0.000-  40 2.58  45 2.58  55 2.58  62 2.58  29 2.98  31 2.98   3 2.98   7 2.98
                            23 2.98  24 2.98
  72  0.750  0.500  0.500-  39 2.58  46 2.58  56 2.58  61 2.58  30 2.98  32 2.98   4 2.98   8 2.98
                            23 2.98  24 2.98
  73  0.250  0.250  0.250-  33 2.58  41 2.58  49 2.58  57 2.58  25 2.98  26 2.98   9 2.98  13 2.98
                            17 2.98  19 2.98
  74  0.250  0.250  0.750-  34 2.58  42 2.58  50 2.58  58 2.58  25 2.98  26 2.98  10 2.98  14 2.98
                            18 2.98  20 2.98
  75  0.250  0.750  0.250-  35 2.58  43 2.58  51 2.58  59 2.58  27 2.98  28 2.98  11 2.98  15 2.98
                            17 2.98  19 2.98
  76  0.250  0.750  0.750-  36 2.58  44 2.58  52 2.58  60 2.58  27 2.98  28 2.98  12 2.98  16 2.98
                            18 2.98  20 2.98
  77  0.750  0.250  0.250-  37 2.58  45 2.58  53 2.58  61 2.58  29 2.98  30 2.98   9 2.98  13 2.98
                            21 2.98  23 2.98
  78  0.750  0.250  0.750-  38 2.58  46 2.58  54 2.58  62 2.58  29 2.98  30 2.98  10 2.98  14 2.98
                            22 2.98  24 2.98
  79  0.750  0.750  0.250-  39 2.58  47 2.58  55 2.58  63 2.58  31 2.98  32 2.98  11 2.98  15 2.98
                            21 2.98  23 2.98
  80  0.750  0.750  0.750-  40 2.58  48 2.58  56 2.58  64 2.58  31 2.98  32 2.98  12 2.98  16 2.98
                            22 2.98  24 2.98
  81  0.000  0.000  0.250-  33 2.58  43 2.58  53 2.58  63 2.58  17 2.98  21 2.98   1 2.98   2 2.98
                             9 2.98  11 2.98
  82  0.000  0.000  0.750-  34 2.58  44 2.58  54 2.58  64 2.58  18 2.98  22 2.98   1 2.98   2 2.98
                            10 2.98  12 2.98
  83  0.000  0.500  0.250-  35 2.58  41 2.58  55 2.58  61 2.58  19 2.98  23 2.98   3 2.98   4 2.98
                             9 2.98  11 2.98
  84  0.000  0.500  0.750-  36 2.58  42 2.58  56 2.58  62 2.58  20 2.98  24 2.98   3 2.98   4 2.98
                            10 2.98  12 2.98
  85  0.500  0.000  0.250-  37 2.58  47 2.58  49 2.58  59 2.58  17 2.98  21 2.98   5 2.98   6 2.98
                            13 2.98  15 2.98
  86  0.500  0.000  0.750-  38 2.58  48 2.58  50 2.58  60 2.58  18 2.98  22 2.98   5 2.98   6 2.98
                            14 2.98  16 2.98
  87  0.500  0.500  0.250-  39 2.58  45 2.58  51 2.58  57 2.58  19 2.98  23 2.98   7 2.98   8 2.98
                            13 2.98  15 2.98
  88  0.500  0.500  0.750-  40 2.58  46 2.58  52 2.58  58 2.58  20 2.98  24 2.98   7 2.98   8 2.98
                            14 2.98  16 2.98
  89  0.000  0.250  0.000-  34 2.58  41 2.58  53 2.58  62 2.58  25 2.98  29 2.98   1 2.98   3 2.98
                             9 2.98  10 2.98
  90  0.000  0.250  0.500-  33 2.58  42 2.58  54 2.58  61 2.58  26 2.98  30 2.98   2 2.98   4 2.98
                             9 2.98  10 2.98
  91  0.000  0.750  0.000-  36 2.58  43 2.58  55 2.58  64 2.58  27 2.98  31 2.98   1 2.98   3 2.98
                            11 2.98  12 2.98
  92  0.000  0.750  0.500-  35 2.58  44 2.58  56 2.58  63 2.58  28 2.98  32 2.98   2 2.98   4 2.98
                            11 2.98  12 2.98
  93  0.500  0.250  0.000-  38 2.58  45 2.58  49 2.58  58 2.58  25 2.98  29 2.98   5 2.98   7 2.98
                            13 2.98  14 2.98
  94  0.500  0.250  0.500-  37 2.58  46 2.58  50 2.58  57 2.58  26 2.98  30 2.98   6 2.98   8 2.98
                            13 2.98  14 2.98
  95  0.500  0.750  0.000-  40 2.58  47 2.58  51 2.58  60 2.58  27 2.98  31 2.98   5 2.98   7 2.98
                            15 2.98  16 2.98
  96  0.500  0.750  0.500-  39 2.58  48 2.58  52 2.58  59 2.58  28 2.98  32 2.98   6 2.98   8 2.98
                            15 2.98  16 2.98
 

IMPORTANT INFORMATION: All symmetrisations will be switched off!
NOSYMM: (Re-)initialisation of all symmetry stuff for point group C_1.


----------------------------------------------------------------------------------------

                                     Primitive cell                                     

  volume of cell :    1689.3517

  direct lattice vectors                    reciprocal lattice vectors
    11.909860967  0.000000000  0.000000000     0.083964036 -0.000000000 -0.000000000
     0.000000000 11.909860967  0.000000000     0.000000000  0.083964036 -0.000000000
     0.000000000  0.000000000 11.909860967     0.000000000  0.000000000  0.083964036

  length of vectors
    11.909860967 11.909860967 11.909860967     0.083964036  0.083964036  0.083964036

  position of ions in fractional coordinates (direct lattice)
     0.000000000  0.000000000  0.000000000
     0.000000000  0.000000000  0.500000000
     1.000000000  0.500000000  0.000000000
     0.000000000  0.500000000  0.500000000
     0.500000000  0.000000000  0.000000000
     0.500000000  0.000000000  0.500000000
     0.500000000  0.500000000  0.000000000
     0.500000000  0.500000000  0.500000000
     0.000000000  0.250000000  0.250000000
     0.000000000  0.250000000  0.750000000
     1.000000000  0.750000000  0.250000000
     0.000000000  0.750000000  0.750000000
     0.500000000  0.250000000  0.250000000
     0.500000000  0.250000000  0.750000000
     0.500000000  0.750000000  0.250000000
     0.500000000  0.750000000  0.750000000
     0.250000000  0.000000000  0.250000000
     0.250000000  0.000000000  0.750000000
     0.250000000  0.500000000  0.250000000
     0.250000000  0.500000000  0.750000000
     0.750000000  0.000000000  0.250000000
     0.750000000  0.000000000  0.750000000
     0.750000000  0.500000000  0.250000000
     0.750000000  0.500000000  0.750000000
     0.250000000  0.250000000  0.000000000
     0.250000000  0.250000000  0.500000000
     0.250000000  0.750000000  0.000000000
     0.250000000  0.750000000  0.500000000
     0.750000000  0.250000000  0.000000000
     0.750000000  0.250000000  0.500000000
     0.750000000  0.750000000  0.000000000
     0.750000000  0.750000000  0.500000000
     0.125000000  0.125000000  0.375000000
     0.125000000  0.125000000  0.875000000
     0.125000000  0.625000000  0.375000000
     0.125000000  0.625000000  0.875000000
     0.625000000  0.125000000  0.375000000
     0.625000000  0.125000000  0.875000000
     0.625000000  0.625000000  0.375000000
     0.625000000  0.625000000  0.875000000
     0.125000000  0.375000000  0.125000000
     0.125000000  0.375000000  0.625000000
     0.125000000  0.875000000  0.125000000
     0.125000000  0.875000000  0.625000000
     0.625000000  0.375000000  0.125000000
     0.625000000  0.375000000  0.625000000
     0.625000000  0.875000000  0.125000000
     0.625000000  0.875000000  0.625000000
     0.375000000  0.125000000  0.125000000
     0.375000000  0.125000000  0.625000000
     0.375000000  0.625000000  0.125000000
     0.375000000  0.625000000  0.625000000
     0.875000000  0.125000000  0.125000000
     0.875000000  0.125000000  0.625000000
     0.875000000  0.625000000  0.125000000
     0.875000000  0.625000000  0.625000000
     0.375000000  0.375000000  0.375000000
     0.375000000  0.375000000  0.875000000
     0.375000000  0.875000000  0.375000000
     0.375000000  0.875000000  0.875000000
     0.875000000  0.375000000  0.375000000
     0.875000000  0.375000000  0.875000000
     0.875000000  0.875000000  0.375000000
     0.875000000  0.875000000  0.875000000
     0.250000000  0.000000000  0.000000000
     0.250000000  0.000000000  0.500000000
     0.250000000  0.500000000  0.000000000
     0.250000000  0.500000000  0.500000000
     0.750000000  0.000000000  0.000000000
     0.750000000  0.000000000  0.500000000
     0.750000000  0.500000000  0.000000000
     0.750000000  0.500000000  0.500000000
     0.250000000  0.250000000  0.250000000
     0.250000000  0.250000000  0.750000000
     0.250000000  0.750000000  0.250000000
     0.250000000  0.750000000  0.750000000
     0.750000000  0.250000000  0.250000000
     0.750000000  0.250000000  0.750000000
     0.750000000  0.750000000  0.250000000
     0.750000000  0.750000000  0.750000000
     0.000000000  0.000000000  0.250000000
     0.000000000  0.000000000  0.750000000
     0.000000000  0.500000000  0.250000000
     0.000000000  0.500000000  0.750000000
     0.500000000  0.000000000  0.250000000
     0.500000000  0.000000000  0.750000000
     0.500000000  0.500000000  0.250000000
     0.500000000  0.500000000  0.750000000
     1.000000000  0.250000000  0.000000000
     0.000000000  0.250000000  0.500000000
     1.000000000  0.750000000  0.000000000
     0.000000000  0.750000000  0.500000000
     0.500000000  0.250000000  0.000000000
     0.500000000  0.250000000  0.500000000
     0.500000000  0.750000000  0.000000000
     0.500000000  0.750000000  0.500000000

  ion indices of the primitive-cell ions
   primitive index   ion index
                 1           1
                 2           2
                 3           3
                 4           4
                 5           5
                 6           6
                 7           7
                 8           8
                 9           9
                10          10
                11          11
                12          12
                13          13
                14          14
                15          15
                16          16
                17          17
                18          18
                19          19
                20          20
                21          21
                22          22
                23          23
                24          24
                25          25
                26          26
                27          27
                28          28
                29          29
                30          30
                31          31
                32          32
                33          33
                34          34
                35          35
                36          36
                37          37
                38          38
                39          39
                40          40
                41          41
                42          42
                43          43
                44          44
                45          45
                46          46
                47          47
                48          48
                49          49
                50          50
                51          51
                52          52
                53          53
                54          54
                55          55
                56          56
                57          57
                58          58
                59          59
                60          60
                61          61
                62          62
                63          63
                64          64
                65          65
                66          66
                67          67
                68          68
                69          69
                70          70
                71          71
                72          72
                73          73
                74          74
                75          75
                76          76
                77          77
                78          78
                79          79
                80          80
                81          81
                82          82
                83          83
                84          84
                85          85
                86          86
                87          87
                88          88
                89          89
                90          90
                91          91
                92          92
                93          93
                94          94
                95          95
                96          96

----------------------------------------------------------------------------------------

 
 
 KPOINTS: K-Spacing Value to Generate K-Mesh: 0.02

Automatic generation of k-mesh.
 Grid dimensions read from file:
 generate k-points for:    4    4    4

 Generating k-lattice:

  Cartesian coordinates                     Fractional coordinates (reciprocal lattice)
     0.020991009 -0.000000000 -0.000000000     0.250000000 -0.000000000  0.000000000
     0.000000000  0.020991009 -0.000000000     0.000000000  0.250000000  0.000000000
     0.000000000  0.000000000  0.020991009     0.000000000  0.000000000  0.250000000

  Length of vectors
     0.020991009  0.020991009  0.020991009

  Shift w.r.t. Gamma in fractional coordinates (k-lattice)
     0.000000000  0.000000000  0.000000000

 
 Subroutine IBZKPT returns following result:
 ===========================================
 
 Found     36 irreducible k-points:
 
 Following reciprocal coordinates:
            Coordinates               Weight
  0.000000  0.000000  0.000000      1.000000
  0.250000 -0.000000  0.000000      2.000000
  0.000000  0.250000  0.000000      2.000000
  0.000000  0.000000  0.250000      2.000000
  0.500000 -0.000000  0.000000      1.000000
  0.000000  0.500000  0.000000      1.000000
  0.000000  0.000000  0.500000      1.000000
  0.250000  0.250000  0.000000      2.000000
  0.000000  0.250000  0.250000      2.000000
  0.250000 -0.000000  0.250000      2.000000
 -0.250000  0.250000 -0.000000      2.000000
 -0.250000  0.000000  0.250000      2.000000
  0.000000 -0.250000  0.250000      2.000000
  0.500000  0.250000  0.000000      2.000000
  0.000000  0.500000  0.250000      2.000000
  0.250000 -0.000000  0.500000      2.000000
 -0.250000  0.500000  0.000000      2.000000
  0.500000 -0.000000  0.250000      2.000000
  0.000000  0.250000  0.500000      2.000000
  0.500000  0.500000  0.000000      1.000000
  0.000000  0.500000  0.500000      1.000000
  0.500000 -0.000000  0.500000      1.000000
  0.250000  0.250000  0.250000      2.000000
 -0.250000  0.250000  0.250000      2.000000
 -0.250000 -0.250000  0.250000      2.000000
  0.250000 -0.250000  0.250000      2.000000
  0.500000  0.250000  0.250000      2.000000
  0.250000  0.500000  0.250000      2.000000
  0.250000  0.250000  0.500000      2.000000
 -0.250000  0.500000  0.250000      2.000000
 -0.250000  0.250000  0.500000      2.000000
  0.500000 -0.250000  0.250000      2.000000
  0.500000  0.500000  0.250000      2.000000
  0.250000  0.500000  0.500000      2.000000
  0.500000  0.250000  0.500000      2.000000
  0.500000  0.500000  0.500000      1.000000
 
 Following cartesian coordinates:
            Coordinates               Weight
  0.000000  0.000000  0.000000      1.000000
  0.020991 -0.000000  0.000000      2.000000
  0.000000  0.020991 -0.000000      2.000000
  0.000000  0.000000  0.020991      2.000000
  0.041982 -0.000000  0.000000      1.000000
  0.000000  0.041982 -0.000000      1.000000
  0.000000  0.000000  0.041982      1.000000
  0.020991  0.020991 -0.000000      2.000000
  0.000000  0.020991  0.020991      2.000000
  0.020991 -0.000000  0.020991      2.000000
 -0.020991  0.020991 -0.000000      2.000000
 -0.020991  0.000000  0.020991      2.000000
  0.000000 -0.020991  0.020991      2.000000
  0.041982  0.020991  0.000000      2.000000
  0.000000  0.041982  0.020991      2.000000
  0.020991 -0.000000  0.041982      2.000000
 -0.020991  0.041982 -0.000000      2.000000
  0.041982 -0.000000  0.020991      2.000000
  0.000000  0.020991  0.041982      2.000000
  0.041982  0.041982 -0.000000      1.000000
  0.000000  0.041982  0.041982      1.000000
  0.041982 -0.000000  0.041982      1.000000
  0.020991  0.020991  0.020991      2.000000
 -0.020991  0.020991  0.020991      2.000000
 -0.020991 -0.020991  0.020991      2.000000
  0.020991 -0.020991  0.020991      2.000000
  0.041982  0.020991  0.020991      2.000000
  0.020991  0.041982  0.020991      2.000000
  0.020991  0.020991  0.041982      2.000000
 -0.020991  0.041982  0.020991      2.000000
 -0.020991  0.020991  0.041982      2.000000
  0.041982 -0.020991  0.020991      2.000000
  0.041982  0.041982  0.020991      2.000000
  0.020991  0.041982  0.041982      2.000000
  0.041982  0.020991  0.041982      2.000000
  0.041982  0.041982  0.041982      1.000000
 


--------------------------------------------------------------------------------------------------------




 Dimension of arrays:
   k-points           NKPTS =     36   k-points in BZ     NKDIM =     36   number of bands    NBANDS=    504
   number of dos      NEDOS =    301   number of ions     NIONS =     96
   non local maximal  LDIM  =      6   non local SUM 2l+1 LMDIM =     18
   total plane-waves  NPLWV = 729000
   max r-space proj   IRMAX =      1   max aug-charges    IRDMAX=  24145
   dimension x,y,z NGX =    90 NGY =   90 NGZ =   90
   dimension x,y,z NGXF=   180 NGYF=  180 NGZF=  180
   support grid    NGXF=   180 NGYF=  180 NGZF=  180
   ions per type =              32  32  32
   NGX,Y,Z   is equivalent  to a cutoff of  12.56, 12.56, 12.56 a.u.
   NGXF,Y,Z  is equivalent  to a cutoff of  25.13, 25.13, 25.13 a.u.

 SYSTEM =  unknown system                          
 POSCAR =  Perfect NbFeSb 2x2x2 supercell          

 Startparameter for this run:
   NWRITE =      2    write-flag & timer
   PREC   = accura    normal or accurate (medium, high low for compatibility)
   ISTART =      0    job   : 0-new  1-cont  2-samecut
   ICHARG =      2    charge: 1-file 2-atom 10-const
   ISPIN  =      1    spin polarized calculation?
   LNONCOLLINEAR =      F non collinear calculations
   LSORBIT =      F    spin-orbit coupling
   INIWAV =      1    electr: 0-lowe 1-rand  2-diag
   LASPH  =      F    aspherical Exc in radial PAW
 Electronic Relaxation 1
   ENCUT  =  500.0 eV  36.75 Ry    6.06 a.u.  21.71 21.71 21.71*2*pi/ulx,y,z
   ENINI  =  500.0     initial cutoff
   ENAUG  =  511.4 eV  augmentation charge cutoff
   NELM   =     60;   NELMIN=  2; NELMDL= -5     # of ELM steps 
   EDIFF  = 0.1E-05   stopping-criterion for ELM
   LREAL  =      F    real-space projection
   NLSPLINE    = F    spline interpolate recip. space projectors
   LCOMPAT=      F    compatible to vasp.4.4
   GGA_COMPAT  = T    GGA compatible to vasp.4.4-vasp.4.6
   LMAXPAW     = -100 max onsite density
   LMAXMIX     =    2 max onsite mixed and CHGCAR
   VOSKOWN=      0    Vosko Wilk Nusair interpolation
   ROPT   =    0.00000   0.00000   0.00000
 Ionic relaxation
   EDIFFG = 0.1E-04   stopping-criterion for IOM
   NSW    =      0    number of steps for IOM
   NBLOCK =      1;   KBLOCK =      1    inner block; outer block 
   IBRION =     -1    ionic relax: 0-MD 1-quasi-New 2-CG
   NFREE  =      0    steps in history (QN), initial steepest desc. (CG)
   ISIF   =      2    stress and relaxation
   IWAVPR =     10    prediction:  0-non 1-charg 2-wave 3-comb
   ISYM   =      0    0-nonsym 1-usesym 2-fastsym
   LCORR  =      T    Harris-Foulkes like correction to forces

   POTIM  = 0.5000    time-step for ionic-motion
   TEIN   =    0.0    initial temperature
   TEBEG  =    0.0;   TEEND  =   0.0 temperature during run
   SMASS  =  -3.00    Nose mass-parameter (am)
   estimated Nose-frequenzy (Omega)   =  0.10E-29 period in steps = 0.13E+47 mass=  -0.324E-26a.u.
   SCALEE = 1.0000    scale energy and forces
   NPACO  =    256;   APACO  = 10.0  distance and # of slots for P.C.
   PSTRESS=    0.0 pullay stress

  Mass of Ions in am
   POMASS =  92.91 55.85121.75
  Ionic Valenz
   ZVAL   =  13.00  8.00  5.00
  Atomic Wigner-Seitz radii
   RWIGS  =  -1.00 -1.00 -1.00
  virtual crystal weights 
   VCA    =   1.00  1.00  1.00
   NELECT =     832.0000    total number of electrons
   NUPDOWN=      -1.0000    fix difference up-down

 DOS related values:
   EMIN   =  10.00;   EMAX   =-10.00  energy-range for DOS
   EFERMI =   0.00
   ISMEAR =     0;   SIGMA  =   0.05  broadening in eV -4-tet -1-fermi 0-gaus

 Electronic relaxation 2 (details)
   IALGO  =     38    algorithm
   LDIAG  =      T    sub-space diagonalisation (order eigenvalues)
   LSUBROT=      F    optimize rotation matrix (better conditioning)
   TURBO    =      0    0=normal 1=particle mesh
   IRESTART =      0    0=no restart 2=restart with 2 vectors
   NREBOOT  =      0    no. of reboots
   NMIN     =      0    reboot dimension
   EREF     =   0.00    reference energy to select bands
   IMIX   =      4    mixing-type and parameters
     AMIX     =   0.40;   BMIX     =  1.00
     AMIX_MAG =   1.60;   BMIX_MAG =  1.00
     AMIN     =   0.10
     WC   =   100.;   INIMIX=   1;  MIXPRE=   1;  MAXMIX= -45

 Intra band minimization:
   WEIMIN = 0.0000     energy-eigenvalue tresh-hold
   EBREAK =  0.50E-09  absolut break condition
   DEPER  =   0.30     relativ break condition  

   TIME   =   0.40     timestep for ELM

  volume/ion in A,a.u.               =      17.60       118.75
  Fermi-wavevector in a.u.,A,eV,Ry     =   1.292833  2.443101 22.741027  1.671418
  Thomas-Fermi vector in A             =   2.424517
 
 Write flags
   LWAVE        =      F    write WAVECAR
   LDOWNSAMPLE  =      F    k-point downsampling of WAVECAR
   LCHARG       =      F    write CHGCAR
   LVTOT        =      F    write LOCPOT, total local potential
   LVHAR        =      F    write LOCPOT, Hartree potential only
   LELF         =      F    write electronic localiz. function (ELF)
   LORBIT       =      0    0 simple, 1 ext, 2 COOP (PROOUT), +10 PAW based schemes


 Dipole corrections
   LMONO  =      F    monopole corrections only (constant potential shift)
   LDIPOL =      F    correct potential (dipole corrections)
   IDIPOL =      0    1-x, 2-y, 3-z, 4-all directions 
   EPSILON=  1.0000000 bulk dielectric constant

 Exchange correlation treatment:
   GGA     =    --    GGA type
   LEXCH   =     8    internal setting for exchange type
   LIBXC   =     F    Libxc                    
   VOSKOWN =     0    Vosko Wilk Nusair interpolation
   LHFCALC =     F    Hartree Fock is set to
   LHFONE  =     F    Hartree Fock one center treatment
   AEXX    =    0.0000 exact exchange contribution

 Linear response parameters
   LEPSILON=     F    determine dielectric tensor
   LRPA    =     F    only Hartree local field effects (RPA)
   LNABLA  =     F    use nabla operator in PAW spheres
   LVEL    =     F    velocity operator in full k-point grid
   CSHIFT  =0.1000    complex shift for real part using Kramers Kronig
   OMEGAMAX=  -1.0    maximum frequency
   DEG_THRESHOLD= 0.2000000E-02 threshold for treating states as degnerate
   RTIME   =   -0.100 relaxation time in fs
  (WPLASMAI=    0.000 imaginary part of plasma frequency in eV, 0.658/RTIME)
   DFIELD  = 0.0000000 0.0000000 0.0000000 field for delta impulse in time
 
  Optional k-point grid parameters
   LKPOINTS_OPT  =     F    use optional k-point grid
   KPOINTS_OPT_MODE=     1    mode for optional k-point grid
 
 Orbital magnetization related:
   ORBITALMAG=     F  switch on orbital magnetization
   LCHIMAG   =     F  perturbation theory with respect to B field
   DQ        =  0.001000  dq finite difference perturbation B field
   LLRAUG    =     F  two centre corrections for induced B field



--------------------------------------------------------------------------------------------------------


 Static calculation
 charge density and potential will be updated during run
 non-spin polarized calculation
 Variant of blocked Davidson
 Davidson routine will perform the subspace rotation
 perform sub-space diagonalisation
    after iterative eigenvector-optimisation
 modified Broyden-mixing scheme, WC =      100.0
 initial mixing is a Kerker type mixing with AMIX =  0.4000 and BMIX =      1.0000
 Hartree-type preconditioning will be used
 using additional bands           88
 reciprocal scheme for non local part
 use partial core corrections
 calculate Harris-corrections to forces 
   (improved forces if not selfconsistent)
 use gradient corrections 
 use of overlap-Matrix (Vanderbilt PP)
 Gauss-broadening in eV      SIGMA  =   0.05


--------------------------------------------------------------------------------------------------------


  energy-cutoff  :      500.00
  volume of cell :     1689.35
      direct lattice vectors                 reciprocal lattice vectors
    11.909860967  0.000000000  0.000000000     0.083964036 -0.000000000 -0.000000000
     0.000000000 11.909860967  0.000000000     0.000000000  0.083964036 -0.000000000
     0.000000000  0.000000000 11.909860967     0.000000000  0.000000000  0.083964036

  length of vectors
    11.909860967 11.909860967 11.909860967     0.083964036  0.083964036  0.083964036


 
 k-points in units of 2pi/SCALE and weight: K-Spacing Value to Generate K-Mesh: 0.02
   0.00000000  0.00000000  0.00000000       0.016
   0.02099101 -0.00000000  0.00000000       0.031
   0.00000000  0.02099101 -0.00000000       0.031
   0.00000000  0.00000000  0.02099101       0.031
   0.04198202 -0.00000000  0.00000000       0.016
   0.00000000  0.04198202 -0.00000000       0.016
   0.00000000  0.00000000  0.04198202       0.016
   0.02099101  0.02099101 -0.00000000       0.031
   0.00000000  0.02099101  0.02099101       0.031
   0.02099101 -0.00000000  0.02099101       0.031
  -0.02099101  0.02099101 -0.00000000       0.031
  -0.02099101  0.00000000  0.02099101       0.031
   0.00000000 -0.02099101  0.02099101       0.031
   0.04198202  0.02099101  0.00000000       0.031
   0.00000000  0.04198202  0.02099101       0.031
   0.02099101 -0.00000000  0.04198202       0.031
  -0.02099101  0.04198202 -0.00000000       0.031
   0.04198202 -0.00000000  0.02099101       0.031
   0.00000000  0.02099101  0.04198202       0.031
   0.04198202  0.04198202 -0.00000000       0.016
   0.00000000  0.04198202  0.04198202       0.016
   0.04198202 -0.00000000  0.04198202       0.016
   0.02099101  0.02099101  0.02099101       0.031
  -0.02099101  0.02099101  0.02099101       0.031
  -0.02099101 -0.02099101  0.02099101       0.031
   0.02099101 -0.02099101  0.02099101       0.031
   0.04198202  0.02099101  0.02099101       0.031
   0.02099101  0.04198202  0.02099101       0.031
   0.02099101  0.02099101  0.04198202       0.031
  -0.02099101  0.04198202  0.02099101       0.031
  -0.02099101  0.02099101  0.04198202       0.031
   0.04198202 -0.02099101  0.02099101       0.031
   0.04198202  0.04198202  0.02099101       0.031
   0.02099101  0.04198202  0.04198202       0.031
   0.04198202  0.02099101  0.04198202       0.031
   0.04198202  0.04198202  0.04198202       0.016
 
 k-points in reciprocal lattice and weights: K-Spacing Value to Generate K-Mesh: 0.02
   0.00000000  0.00000000  0.00000000       0.016
   0.25000000 -0.00000000  0.00000000       0.031
   0.00000000  0.25000000  0.00000000       0.031
   0.00000000  0.00000000  0.25000000       0.031
   0.50000000 -0.00000000  0.00000000       0.016
   0.00000000  0.50000000  0.00000000       0.016
   0.00000000  0.00000000  0.50000000       0.016
   0.25000000  0.25000000  0.00000000       0.031
   0.00000000  0.25000000  0.25000000       0.031
   0.25000000 -0.00000000  0.25000000       0.031
  -0.25000000  0.25000000 -0.00000000       0.031
  -0.25000000  0.00000000  0.25000000       0.031
   0.00000000 -0.25000000  0.25000000       0.031
   0.50000000  0.25000000  0.00000000       0.031
   0.00000000  0.50000000  0.25000000       0.031
   0.25000000 -0.00000000  0.50000000       0.031
  -0.25000000  0.50000000  0.00000000       0.031
   0.50000000 -0.00000000  0.25000000       0.031
   0.00000000  0.25000000  0.50000000       0.031
   0.50000000  0.50000000  0.00000000       0.016
   0.00000000  0.50000000  0.50000000       0.016
   0.50000000 -0.00000000  0.50000000       0.016
   0.25000000  0.25000000  0.25000000       0.031
  -0.25000000  0.25000000  0.25000000       0.031
  -0.25000000 -0.25000000  0.25000000       0.031
   0.25000000 -0.25000000  0.25000000       0.031
   0.50000000  0.25000000  0.25000000       0.031
   0.25000000  0.50000000  0.25000000       0.031
   0.25000000  0.25000000  0.50000000       0.031
  -0.25000000  0.50000000  0.25000000       0.031
  -0.25000000  0.25000000  0.50000000       0.031
   0.50000000 -0.25000000  0.25000000       0.031
   0.50000000  0.50000000  0.25000000       0.031
   0.25000000  0.50000000  0.50000000       0.031
   0.50000000  0.25000000  0.50000000       0.031
   0.50000000  0.50000000  0.50000000       0.016
 
 position of ions in fractional coordinates (direct lattice) 
   0.00000000  0.00000000  0.00000000
   0.00000000  0.00000000  0.50000000
   0.00000000  0.50000000  0.00000000
   0.00000000  0.50000000  0.50000000
   0.50000000  0.00000000  0.00000000
   0.50000000  0.00000000  0.50000000
   0.50000000  0.50000000  0.00000000
   0.50000000  0.50000000  0.50000000
   0.00000000  0.25000000  0.25000000
   0.00000000  0.25000000  0.75000000
   0.00000000  0.75000000  0.25000000
   0.00000000  0.75000000  0.75000000
   0.50000000  0.25000000  0.25000000
   0.50000000  0.25000000  0.75000000
   0.50000000  0.75000000  0.25000000
   0.50000000  0.75000000  0.75000000
   0.25000000  0.00000000  0.25000000
   0.25000000  0.00000000  0.75000000
   0.25000000  0.50000000  0.25000000
   0.25000000  0.50000000  0.75000000
   0.75000000  0.00000000  0.25000000
   0.75000000  0.00000000  0.75000000
   0.75000000  0.50000000  0.25000000
   0.75000000  0.50000000  0.75000000
   0.25000000  0.25000000  0.00000000
   0.25000000  0.25000000  0.50000000
   0.25000000  0.75000000  0.00000000
   0.25000000  0.75000000  0.50000000
   0.75000000  0.25000000  0.00000000
   0.75000000  0.25000000  0.50000000
   0.75000000  0.75000000  0.00000000
   0.75000000  0.75000000  0.50000000
   0.12500000  0.12500000  0.37500000
   0.12500000  0.12500000  0.87500000
   0.12500000  0.62500000  0.37500000
   0.12500000  0.62500000  0.87500000
   0.62500000  0.12500000  0.37500000
   0.62500000  0.12500000  0.87500000
   0.62500000  0.62500000  0.37500000
   0.62500000  0.62500000  0.87500000
   0.12500000  0.37500000  0.12500000
   0.12500000  0.37500000  0.62500000
   0.12500000  0.87500000  0.12500000
   0.12500000  0.87500000  0.62500000
   0.62500000  0.37500000  0.12500000
   0.62500000  0.37500000  0.62500000
   0.62500000  0.87500000  0.12500000
   0.62500000  0.87500000  0.62500000
   0.37500000  0.12500000  0.12500000
   0.37500000  0.12500000  0.62500000
   0.37500000  0.62500000  0.12500000
   0.37500000  0.62500000  0.62500000
   0.87500000  0.12500000  0.12500000
   0.87500000  0.12500000  0.62500000
   0.87500000  0.62500000  0.12500000
   0.87500000  0.62500000  0.62500000
   0.37500000  0.37500000  0.37500000
   0.37500000  0.37500000  0.87500000
   0.37500000  0.87500000  0.37500000
   0.37500000  0.87500000  0.87500000
   0.87500000  0.37500000  0.37500000
   0.87500000  0.37500000  0.87500000
   0.87500000  0.87500000  0.37500000
   0.87500000  0.87500000  0.87500000
   0.25000000  0.00000000  0.00000000
   0.25000000  0.00000000  0.50000000
   0.25000000  0.50000000  0.00000000
   0.25000000  0.50000000  0.50000000
   0.75000000  0.00000000  0.00000000
   0.75000000  0.00000000  0.50000000
   0.75000000  0.50000000  0.00000000
   0.75000000  0.50000000  0.50000000
   0.25000000  0.25000000  0.25000000
   0.25000000  0.25000000  0.75000000
   0.25000000  0.75000000  0.25000000
   0.25000000  0.75000000  0.75000000
   0.75000000  0.25000000  0.25000000
   0.75000000  0.25000000  0.75000000
   0.75000000  0.75000000  0.25000000
   0.75000000  0.75000000  0.75000000
   0.00000000  0.00000000  0.25000000
   0.00000000  0.00000000  0.75000000
   0.00000000  0.50000000  0.25000000
   0.00000000  0.50000000  0.75000000
   0.50000000  0.00000000  0.25000000
   0.50000000  0.00000000  0.75000000
   0.50000000  0.50000000  0.25000000
   0.50000000  0.50000000  0.75000000
   0.00000000  0.25000000  0.00000000
   0.00000000  0.25000000  0.50000000
   0.00000000  0.75000000  0.00000000
   0.00000000  0.75000000  0.50000000
   0.50000000  0.25000000  0.00000000
   0.50000000  0.25000000  0.50000000
   0.50000000  0.75000000  0.00000000
   0.50000000  0.75000000  0.50000000
 
 position of ions in cartesian coordinates  (Angst):
   0.00000000  0.00000000  0.00000000
   0.00000000  0.00000000  5.95493048
   0.00000000  5.95493048  0.00000000
   0.00000000  5.95493048  5.95493048
   5.95493048  0.00000000  0.00000000
   5.95493048  0.00000000  5.95493048
   5.95493048  5.95493048  0.00000000
   5.95493048  5.95493048  5.95493048
   0.00000000  2.97746524  2.97746524
   0.00000000  2.97746524  8.93239573
   0.00000000  8.93239573  2.97746524
   0.00000000  8.93239573  8.93239573
   5.95493048  2.97746524  2.97746524
   5.95493048  2.97746524  8.93239573
   5.95493048  8.93239573  2.97746524
   5.95493048  8.93239573  8.93239573
   2.97746524  0.00000000  2.97746524
   2.97746524  0.00000000  8.93239573
   2.97746524  5.95493048  2.97746524
   2.97746524  5.95493048  8.93239573
   8.93239573  0.00000000  2.97746524
   8.93239573  0.00000000  8.93239573
   8.93239573  5.95493048  2.97746524
   8.93239573  5.95493048  8.93239573
   2.97746524  2.97746524  0.00000000
   2.97746524  2.97746524  5.95493048
   2.97746524  8.93239573  0.00000000
   2.97746524  8.93239573  5.95493048
   8.93239573  2.97746524  0.00000000
   8.93239573  2.97746524  5.95493048
   8.93239573  8.93239573  0.00000000
   8.93239573  8.93239573  5.95493048
   1.48873262  1.48873262  4.46619786
   1.48873262  1.48873262 10.42112835
   1.48873262  7.44366310  4.46619786
   1.48873262  7.44366310 10.42112835
   7.44366310  1.48873262  4.46619786
   7.44366310  1.48873262 10.42112835
   7.44366310  7.44366310  4.46619786
   7.44366310  7.44366310 10.42112835
   1.48873262  4.46619786  1.48873262
   1.48873262  4.46619786  7.44366310
   1.48873262 10.42112835  1.48873262
   1.48873262 10.42112835  7.44366310
   7.44366310  4.46619786  1.48873262
   7.44366310  4.46619786  7.44366310
   7.44366310 10.42112835  1.48873262
   7.44366310 10.42112835  7.44366310
   4.46619786  1.48873262  1.48873262
   4.46619786  1.48873262  7.44366310
   4.46619786  7.44366310  1.48873262
   4.46619786  7.44366310  7.44366310
  10.42112835  1.48873262  1.48873262
  10.42112835  1.48873262  7.44366310
  10.42112835  7.44366310  1.48873262
  10.42112835  7.44366310  7.44366310
   4.46619786  4.46619786  4.46619786
   4.46619786  4.46619786 10.42112835
   4.46619786 10.42112835  4.46619786
   4.46619786 10.42112835 10.42112835
  10.42112835  4.46619786  4.46619786
  10.42112835  4.46619786 10.42112835
  10.42112835 10.42112835  4.46619786
  10.42112835 10.42112835 10.42112835
   2.97746524  0.00000000  0.00000000
   2.97746524  0.00000000  5.95493048
   2.97746524  5.95493048  0.00000000
   2.97746524  5.95493048  5.95493048
   8.93239573  0.00000000  0.00000000
   8.93239573  0.00000000  5.95493048
   8.93239573  5.95493048  0.00000000
   8.93239573  5.95493048  5.95493048
   2.97746524  2.97746524  2.97746524
   2.97746524  2.97746524  8.93239573
   2.97746524  8.93239573  2.97746524
   2.97746524  8.93239573  8.93239573
   8.93239573  2.97746524  2.97746524
   8.93239573  2.97746524  8.93239573
   8.93239573  8.93239573  2.97746524
   8.93239573  8.93239573  8.93239573
   0.00000000  0.00000000  2.97746524
   0.00000000  0.00000000  8.93239573
   0.00000000  5.95493048  2.97746524
   0.00000000  5.95493048  8.93239573
   5.95493048  0.00000000  2.97746524
   5.95493048  0.00000000  8.93239573
   5.95493048  5.95493048  2.97746524
   5.95493048  5.95493048  8.93239573
   0.00000000  2.97746524  0.00000000
   0.00000000  2.97746524  5.95493048
   0.00000000  8.93239573  0.00000000
   0.00000000  8.93239573  5.95493048
   5.95493048  2.97746524  0.00000000
   5.95493048  2.97746524  5.95493048
   5.95493048  8.93239573  0.00000000
   5.95493048  8.93239573  5.95493048
 


--------------------------------------------------------------------------------------------------------


 k-point   1 :   0.0000 0.0000 0.0000  plane waves:   42931
 k-point   2 :   0.2500-0.0000 0.0000  plane waves:   42883
 k-point   3 :   0.0000 0.2500 0.0000  plane waves:   42883
 k-point   4 :   0.0000 0.0000 0.2500  plane waves:   42883
 k-point   5 :   0.5000-0.0000 0.0000  plane waves:   42892
 k-point   6 :   0.0000 0.5000 0.0000  plane waves:   42892
 k-point   7 :   0.0000 0.0000 0.5000  plane waves:   42892
 k-point   8 :   0.2500 0.2500 0.0000  plane waves:   42843
 k-point   9 :   0.0000 0.2500 0.2500  plane waves:   42843
 k-point  10 :   0.2500-0.0000 0.2500  plane waves:   42843
 k-point  11 :  -0.2500 0.2500-0.0000  plane waves:   42843
 k-point  12 :  -0.2500 0.0000 0.2500  plane waves:   42843
 k-point  13 :   0.0000-0.2500 0.2500  plane waves:   42843
 k-point  14 :   0.5000 0.2500 0.0000  plane waves:   42880
 k-point  15 :   0.0000 0.5000 0.2500  plane waves:   42880
 k-point  16 :   0.2500-0.0000 0.5000  plane waves:   42880
 k-point  17 :  -0.2500 0.5000 0.0000  plane waves:   42880
 k-point  18 :   0.5000-0.0000 0.2500  plane waves:   42880
 k-point  19 :   0.0000 0.2500 0.5000  plane waves:   42880
 k-point  20 :   0.5000 0.5000 0.0000  plane waves:   43004
 k-point  21 :   0.0000 0.5000 0.5000  plane waves:   43004
 k-point  22 :   0.5000-0.0000 0.5000  plane waves:   43004
 k-point  23 :   0.2500 0.2500 0.2500  plane waves:   42925
 k-point  24 :  -0.2500 0.2500 0.2500  plane waves:   42925
 k-point  25 :  -0.2500-0.2500 0.2500  plane waves:   42925
 k-point  26 :   0.2500-0.2500 0.2500  plane waves:   42925
 k-point  27 :   0.5000 0.2500 0.2500  plane waves:   42900
 k-point  28 :   0.2500 0.5000 0.2500  plane waves:   42900
 k-point  29 :   0.2500 0.2500 0.5000  plane waves:   42900
 k-point  30 :  -0.2500 0.5000 0.2500  plane waves:   42900
 k-point  31 :  -0.2500 0.2500 0.5000  plane waves:   42900
 k-point  32 :   0.5000-0.2500 0.2500  plane waves:   42900
 k-point  33 :   0.5000 0.5000 0.2500  plane waves:   42840
 k-point  34 :   0.2500 0.5000 0.5000  plane waves:   42840
 k-point  35 :   0.5000 0.2500 0.5000  plane waves:   42840
 k-point  36 :   0.5000 0.5000 0.5000  plane waves:   42920

 maximum and minimum number of plane-waves per node :      5407     5296

 maximum number of plane-waves:     43004
 maximum index in each direction: 
   IXMAX=   21   IYMAX=   21   IZMAX=   21
   IXMIN=  -22   IYMIN=  -22   IZMIN=  -22


 parallel 3D FFT for wavefunctions:
    minimum data exchange during FFTs selected (reduces bandwidth)
 parallel 3D FFT for charge:
    minimum data exchange during FFTs selected (reduces bandwidth)


 total amount of memory used by VASP MPI-rank0   341150. kBytes
=======================================================================

   base      :      30000. kBytes
   nonl-proj :      92001. kBytes
   fftplans  :       6154. kBytes
   grid      :      10177. kBytes
   one-center:        186. kBytes
   wavefun   :     202632. kBytes
 
     INWAV:  cpu time      0.0000: real time      0.0002
 Broyden mixing: mesh for mixing (old mesh)
   NGX = 43   NGY = 43   NGZ = 43
  (NGX  =180   NGY  =180   NGZ  =180)
  gives a total of  79507 points

 initial charge density was supplied:
 charge density of overlapping atoms calculated
 number of electron     832.0000000 magnetization 
 keeping initial charge density in first step


--------------------------------------------------------------------------------------------------------


 Maximum index for augmentation-charges          981 (set IRDMAX)


--------------------------------------------------------------------------------------------------------


 First call to EWALD:  gamma=   0.149
 Maximum number of real-space cells 3x 3x 3
 Maximum number of reciprocal cells 3x 3x 3

    FEWALD:  cpu time      0.0029: real time      0.0029


--------------------------------------- Iteration      1(   1)  ---------------------------------------


    POTLOK:  cpu time      0.0888: real time      0.0967
    SETDIJ:  cpu time      0.0132: real time      0.0147
     EDDAV:  cpu time    150.4069: real time    153.0238
       DOS:  cpu time      0.0082: real time      0.0092
    --------------------------------------------
      LOOP:  cpu time    150.5171: real time    153.1444

 eigenvalue-minimisations  : 36288
 total energy-change (2. order) : 0.1145816E+05  (-0.3418202E+05)
 number of electron     832.0000000 magnetization 
 augmentation part      832.0000000 magnetization 

 Free energy of the ion-electron system (eV)
  ---------------------------------------------------
  alpha Z        PSCENC =      2980.66901670
  Ewald energy   TEWEN  =    -60183.06188903
  -Hartree energ DENC   =    -17153.46243111
  -exchange      EXHF   =         0.00000000
  -V(xc)+E(xc)   XCENC  =       491.67356816
  PAW double counting   =     62474.28130983   -60383.95191016
  entropy T*S    EENTRO =        -0.02552080
  eigenvalues    EBANDS =      9649.69652408
  atomic energy  EATOM  =     73582.33973823
  Solvation  Ediel_sol  =         0.00000000
  ---------------------------------------------------
  free energy    TOTEN  =     11458.15840590 eV

  energy without entropy =    11458.18392670  energy(sigma->0) =    11458.17116630


--------------------------------------------------------------------------------------------------------




--------------------------------------- Iteration      1(   2)  ---------------------------------------


     EDDAV:  cpu time    151.5450: real time    154.0881
       DOS:  cpu time      0.0088: real time      0.0089
    --------------------------------------------
      LOOP:  cpu time    151.5538: real time    154.0970

 eigenvalue-minimisations  : 36456
 total energy-change (2. order) :-0.1055733E+05  (-0.1027545E+05)
 number of electron     832.0000000 magnetization 
 augmentation part      832.0000000 magnetization 

 Free energy of the ion-electron system (eV)
  ---------------------------------------------------
  alpha Z        PSCENC =      2980.66901670
  Ewald energy   TEWEN  =    -60183.06188903
  -Hartree energ DENC   =    -17153.46243111
  -exchange      EXHF   =         0.00000000
  -V(xc)+E(xc)   XCENC  =       491.67356816
  PAW double counting   =     62474.28130983   -60383.95191016
  entropy T*S    EENTRO =        -0.03224828
  eigenvalues    EBANDS =      -907.62714700
  atomic energy  EATOM  =     73582.33973823
  Solvation  Ediel_sol  =         0.00000000
  ---------------------------------------------------
  free energy    TOTEN  =       900.82800734 eV

  energy without entropy =      900.86025562  energy(sigma->0) =      900.84413148


--------------------------------------------------------------------------------------------------------




--------------------------------------- Iteration      1(   3)  ---------------------------------------


     EDDAV:  cpu time    171.5968: real time    174.4946
       DOS:  cpu time      0.0043: real time      0.0043
    --------------------------------------------
      LOOP:  cpu time    171.6011: real time    174.4989

 eigenvalue-minimisations  : 42776
 total energy-change (2. order) :-0.1434002E+04  (-0.1348682E+04)
 number of electron     832.0000000 magnetization 
 augmentation part      832.0000000 magnetization 

 Free energy of the ion-electron system (eV)
  ---------------------------------------------------
  alpha Z        PSCENC =      2980.66901670
  Ewald energy   TEWEN  =    -60183.06188903
  -Hartree energ DENC   =    -17153.46243111
  -exchange      EXHF   =         0.00000000
  -V(xc)+E(xc)   XCENC  =       491.67356816
  PAW double counting   =     62474.28130983   -60383.95191016
  entropy T*S    EENTRO =        -0.00000000
  eigenvalues    EBANDS =     -2341.66091398
  atomic energy  EATOM  =     73582.33973823
  Solvation  Ediel_sol  =         0.00000000
  ---------------------------------------------------
  free energy    TOTEN  =      -533.17351136 eV

  energy without entropy =     -533.17351136  energy(sigma->0) =     -533.17351136


--------------------------------------------------------------------------------------------------------




--------------------------------------- Iteration      1(   4)  ---------------------------------------


     EDDAV:  cpu time    228.8148: real time    232.7098
       DOS:  cpu time      0.0030: real time      0.0030
    --------------------------------------------
      LOOP:  cpu time    228.8178: real time    232.7129

 eigenvalue-minimisations  : 60024
 total energy-change (2. order) :-0.2426979E+03  (-0.2371742E+03)
 number of electron     832.0000000 magnetization 
 augmentation part      832.0000000 magnetization 

 Free energy of the ion-electron system (eV)
  ---------------------------------------------------
  alpha Z        PSCENC =      2980.66901670
  Ewald energy   TEWEN  =    -60183.06188903
  -Hartree energ DENC   =    -17153.46243111
  -exchange      EXHF   =         0.00000000
  -V(xc)+E(xc)   XCENC  =       491.67356816
  PAW double counting   =     62474.28130983   -60383.95191016
  entropy T*S    EENTRO =        -0.00000000
  eigenvalues    EBANDS =     -2584.35884680
  atomic energy  EATOM  =     73582.33973823
  Solvation  Ediel_sol  =         0.00000000
  ---------------------------------------------------
  free energy    TOTEN  =      -775.87144419 eV

  energy without entropy =     -775.87144419  energy(sigma->0) =     -775.87144419


--------------------------------------------------------------------------------------------------------




--------------------------------------- Iteration      1(   5)  ---------------------------------------


     EDDAV:  cpu time    261.3023: real time    265.6024
       DOS:  cpu time      0.0029: real time      0.0029
    CHARGE:  cpu time      3.7428: real time      3.8069
    MIXING:  cpu time      0.0027: real time      0.0036
    --------------------------------------------
      LOOP:  cpu time    265.0507: real time    269.4158

 eigenvalue-minimisations  : 64440
 total energy-change (2. order) :-0.2249327E+02  (-0.2232596E+02)
 number of electron     831.9999661 magnetization 
 augmentation part      142.6676026 magnetization 

 Broyden mixing:
  rms(total) = 0.63339E+01    rms(broyden)= 0.63337E+01
  rms(prec ) = 0.70063E+01
  weight for this iteration     100.00

 Free energy of the ion-electron system (eV)
  ---------------------------------------------------
  alpha Z        PSCENC =      2980.66901670
  Ewald energy   TEWEN  =    -60183.06188903
  -Hartree energ DENC   =    -17153.46243111
  -exchange      EXHF   =         0.00000000
  -V(xc)+E(xc)   XCENC  =       491.67356816
  PAW double counting   =     62474.28130983   -60383.95191016
  entropy T*S    EENTRO =        -0.00000000
  eigenvalues    EBANDS =     -2606.85211501
  atomic energy  EATOM  =     73582.33973823
  Solvation  Ediel_sol  =         0.00000000
  ---------------------------------------------------
  free energy    TOTEN  =      -798.36471240 eV

  energy without entropy =     -798.36471240  energy(sigma->0) =     -798.36471240


--------------------------------------------------------------------------------------------------------




--------------------------------------- Iteration      1(   6)  ---------------------------------------


    POTLOK:  cpu time      0.0762: real time      0.0817
    SETDIJ:  cpu time      0.0129: real time      0.0130
     EDDAV:  cpu time    226.2632: real time    230.0420
       DOS:  cpu time      0.0025: real time      0.0025
    CHARGE:  cpu time      3.7362: real time      3.7998
    MIXING:  cpu time      0.0023: real time      0.0035
    --------------------------------------------
      LOOP:  cpu time    230.0932: real time    233.9426

 eigenvalue-minimisations  : 54512
 total energy-change (2. order) : 0.2980554E+02  (-0.2765573E+02)
 number of electron     831.9999560 magnetization 
 augmentation part      169.8814941 magnetization 

 Broyden mixing:
  rms(total) = 0.31676E+01    rms(broyden)= 0.31674E+01
  rms(prec ) = 0.42961E+01
  weight for this iteration     100.00

 eigenvalues of (default mixing * dielectric matrix)
  average eigenvalue GAMMA=   0.8266
  0.8266

 Free energy of the ion-electron system (eV)
  ---------------------------------------------------
  alpha Z        PSCENC =      2980.66901670
  Ewald energy   TEWEN  =    -60183.06188903
  -Hartree energ DENC   =    -16293.22710813
  -exchange      EXHF   =         0.00000000
  -V(xc)+E(xc)   XCENC  =       455.43275455
  PAW double counting   =     71580.88611191   -69470.01912029
  entropy T*S    EENTRO =        -0.00000000
  eigenvalues    EBANDS =     -3421.57867727
  atomic energy  EATOM  =     73582.33973823
  Solvation  Ediel_sol  =         0.00000000
  ---------------------------------------------------
  free energy    TOTEN  =      -768.55917333 eV

  energy without entropy =     -768.55917333  energy(sigma->0) =     -768.55917333


--------------------------------------------------------------------------------------------------------




--------------------------------------- Iteration      1(   7)  ---------------------------------------


    POTLOK:  cpu time      0.0700: real time      0.0754
    SETDIJ:  cpu time      0.0125: real time      0.0126
     EDDAV:  cpu time    254.8065: real time    259.0203
       DOS:  cpu time      0.0073: real time      0.0073
    CHARGE:  cpu time      3.8460: real time      3.9107
    MIXING:  cpu time      0.0020: real time      0.0020
    --------------------------------------------
      LOOP:  cpu time    258.7444: real time    263.0283

 eigenvalue-minimisations  : 62408
 total energy-change (2. order) :-0.6037033E+02  (-0.5182654E+02)
 number of electron     831.9999809 magnetization 
 augmentation part      112.5216817 magnetization 

 Broyden mixing:
  rms(total) = 0.97389E+01    rms(broyden)= 0.97386E+01
  rms(prec ) = 0.12671E+02
  weight for this iteration     100.00

 eigenvalues of (default mixing * dielectric matrix)
  average eigenvalue GAMMA=   0.7221
  1.2652  0.1790

 Free energy of the ion-electron system (eV)
  ---------------------------------------------------
  alpha Z        PSCENC =      2980.66901670
  Ewald energy   TEWEN  =    -60183.06188903
  -Hartree energ DENC   =    -16467.93890653
  -exchange      EXHF   =         0.00000000
  -V(xc)+E(xc)   XCENC  =       462.13627726
  PAW double counting   =     74796.64730402   -72765.12004754
  entropy T*S    EENTRO =        -0.06039434
  eigenvalues    EBANDS =     -3234.54059963
  atomic energy  EATOM  =     73582.33973823
  Solvation  Ediel_sol  =         0.00000000
  ---------------------------------------------------
  free energy    TOTEN  =      -828.92950086 eV

  energy without entropy =     -828.86910652  energy(sigma->0) =     -828.89930369


--------------------------------------------------------------------------------------------------------




--------------------------------------- Iteration      1(   8)  ---------------------------------------


    POTLOK:  cpu time      0.0700: real time      0.0709
    SETDIJ:  cpu time      0.0126: real time      0.0127
     EDDAV:  cpu time    233.0772: real time    236.9489
       DOS:  cpu time      0.0037: real time      0.0037
    CHARGE:  cpu time      3.8089: real time      3.8750
    MIXING:  cpu time      0.0023: real time      0.0023
    --------------------------------------------
      LOOP:  cpu time    236.9746: real time    240.9135

 eigenvalue-minimisations  : 56032
 total energy-change (2. order) : 0.7252925E+02  (-0.1974060E+02)
 number of electron     831.9999624 magnetization 
 augmentation part      149.3804119 magnetization 

 Broyden mixing:
  rms(total) = 0.15733E+01    rms(broyden)= 0.15726E+01
  rms(prec ) = 0.18519E+01
  weight for this iteration     100.00

 eigenvalues of (default mixing * dielectric matrix)
  average eigenvalue GAMMA=   0.8369
  1.5338  0.7847  0.1922

 Free energy of the ion-electron system (eV)
  ---------------------------------------------------
  alpha Z        PSCENC =      2980.66901670
  Ewald energy   TEWEN  =    -60183.06188903
  -Hartree energ DENC   =    -16348.41228034
  -exchange      EXHF   =         0.00000000
  -V(xc)+E(xc)   XCENC  =       458.19887780
  PAW double counting   =     77929.89793300   -75851.08212829
  entropy T*S    EENTRO =        -0.00000000
  eigenvalues    EBANDS =     -3324.94952290
[...]
   -.219E-02 0.948E-03 0.387E-02   -.259E-12 -.835E-13 -.142E-13   -.313E-04 0.256E-04 0.636E-04   0.218E-02 -.964E-03 -.385E-02
   -.167E-03 -.242E-02 -.109E-02   -.281E-12 -.977E-13 -.266E-13   -.558E-04 -.261E-04 0.765E-04   0.328E-03 0.240E-02 0.946E-03
   0.680E-03 0.350E-02 -.185E-02   -.154E-12 -.399E-13 0.642E-14   -.576E-05 0.520E-05 -.910E-04   -.654E-03 -.338E-02 0.195E-02
   0.548E-02 0.721E-03 -.769E-02   -.268E-12 -.754E-13 -.227E-13   0.478E-04 0.914E-04 -.928E-04   -.549E-02 -.842E-03 0.769E-02
   0.390E-02 0.165E-02 -.352E-02   -.268E-12 -.104E-12 -.113E-13   0.543E-04 0.348E-04 0.679E-05   -.392E-02 -.162E-02 0.343E-02
   0.262E-02 0.127E-02 0.433E-02   -.227E-12 -.689E-13 -.845E-14   0.842E-04 0.207E-04 0.982E-04   -.270E-02 -.122E-02 -.449E-02
   -.366E-03 -.220E-02 -.150E-02   -.271E-12 -.416E-13 -.238E-13   0.594E-04 -.958E-04 -.412E-05   0.237E-03 0.239E-02 0.143E-02
   -.252E-02 -.976E-04 -.266E-02   -.306E-12 -.416E-13 -.227E-13   -.522E-04 0.509E-05 -.375E-04   0.258E-02 0.103E-03 0.262E-02
   -.120E-02 0.938E-03 0.223E-02   -.249E-12 -.316E-13 0.287E-14   -.122E-04 0.712E-04 -.864E-04   0.120E-02 -.109E-02 -.205E-02
   -.345E-02 0.132E-02 -.226E-02   -.270E-12 -.281E-13 0.398E-14   -.872E-04 0.642E-04 -.357E-04   0.356E-02 -.145E-02 0.223E-02
   0.118E-02 -.869E-03 -.833E-03   0.120E-12 0.453E-13 0.306E-13   0.622E-04 -.739E-04 -.660E-04   -.120E-02 0.895E-03 0.864E-03
   -.241E-03 -.130E-03 0.465E-03   0.795E-13 0.613E-13 0.289E-13   0.567E-05 -.344E-05 0.282E-04   0.234E-03 0.134E-03 -.490E-03
   -.909E-03 0.806E-03 0.584E-03   0.114E-12 0.480E-13 -.169E-13   -.754E-04 0.720E-04 0.598E-05   0.938E-03 -.824E-03 -.575E-03
   0.128E-02 0.507E-03 -.502E-03   0.110E-12 0.164E-13 0.240E-13   0.293E-04 0.429E-04 0.114E-04   -.130E-02 -.533E-03 0.485E-03
   -.514E-03 -.798E-03 -.481E-04   0.622E-14 0.119E-12 0.115E-13   -.410E-04 -.707E-04 -.246E-04   0.518E-03 0.813E-03 0.448E-04
   -.457E-03 -.481E-03 -.748E-04   0.457E-13 0.106E-12 0.266E-14   -.244E-04 -.629E-04 0.254E-04   0.464E-03 0.503E-03 0.690E-04
   -.582E-03 0.970E-03 0.332E-04   0.121E-12 0.995E-13 0.213E-13   -.219E-04 0.806E-04 -.273E-04   0.573E-03 -.993E-03 -.867E-05
   -.550E-03 0.303E-03 0.333E-03   0.258E-13 0.977E-13 0.338E-13   -.265E-04 0.362E-04 0.364E-04   0.587E-03 -.299E-03 -.329E-03
   0.174E-03 -.125E-02 -.119E-02   0.112E-12 0.657E-13 -.444E-14   0.281E-05 -.954E-04 -.144E-03   -.188E-03 0.127E-02 0.124E-02
   0.408E-03 0.527E-04 0.631E-04   0.480E-13 0.657E-13 0.187E-13   0.277E-05 0.623E-05 -.775E-05   -.400E-03 -.791E-04 -.320E-04
   0.787E-04 0.102E-02 0.570E-03   0.782E-13 0.123E-12 0.124E-13   -.100E-05 0.333E-04 0.547E-04   -.725E-04 -.101E-02 -.596E-03
   0.679E-03 -.782E-04 0.813E-03   0.142E-12 0.113E-12 0.355E-13   0.212E-04 0.461E-04 0.110E-03   -.691E-03 0.691E-04 -.857E-03
   -.808E-03 0.153E-03 -.138E-04   0.577E-13 0.391E-13 0.240E-13   -.386E-04 0.176E-04 -.110E-04   0.818E-03 -.153E-03 -.243E-05
   -.564E-03 0.394E-03 0.793E-03   0.115E-13 0.533E-13 0.329E-13   -.232E-04 0.775E-05 0.118E-03   0.546E-03 -.368E-03 -.839E-03
   0.262E-03 -.586E-03 -.412E-03   0.737E-13 0.675E-13 0.266E-13   0.300E-05 -.179E-04 -.949E-04   -.253E-03 0.570E-03 0.439E-03
   -.912E-03 0.551E-05 -.568E-03   0.995E-13 -.142E-13 0.426E-13   -.317E-04 -.241E-05 -.110E-04   0.929E-03 -.239E-04 0.576E-03
   -.211E-03 -.228E-03 -.633E-04   0.488E-13 0.844E-13 -.178E-14   -.277E-04 -.378E-04 -.348E-04   0.211E-03 0.222E-03 0.775E-04
   0.927E-03 -.943E-03 -.122E-03   0.109E-12 0.128E-12 0.266E-13   0.696E-04 -.793E-04 0.209E-04   -.981E-03 0.992E-03 0.120E-03
   0.194E-02 0.282E-03 -.740E-03   0.755E-13 0.400E-13 0.000E+00   0.162E-03 0.749E-04 -.886E-04   -.199E-02 -.295E-03 0.773E-03
   0.788E-03 0.784E-03 0.784E-03   0.995E-13 0.639E-13 0.355E-13   0.449E-04 0.388E-04 0.877E-04   -.794E-03 -.823E-03 -.830E-03
   -.220E-03 -.562E-03 -.395E-03   0.298E-13 0.608E-13 0.488E-14   -.385E-04 -.719E-04 -.444E-04   0.245E-03 0.586E-03 0.405E-03
   -.415E-03 -.594E-03 0.110E-02   0.107E-13 0.835E-13 -.222E-14   0.118E-04 -.290E-04 0.104E-03   0.440E-03 0.601E-03 -.112E-02
   -.118E-02 0.112E-02 0.594E-04   0.888E-13 0.244E-13 0.622E-14   -.528E-04 0.854E-04 -.477E-04   0.119E-02 -.113E-02 -.690E-04
   -.865E-03 0.506E-03 -.557E-03   0.853E-13 0.112E-12 -.888E-15   -.793E-04 0.570E-04 0.224E-04   0.891E-03 -.530E-03 0.558E-03
   0.105E-02 -.757E-03 0.408E-03   0.426E-13 0.497E-13 -.622E-14   0.644E-04 -.821E-04 0.343E-04   -.106E-02 0.793E-03 -.385E-03
   0.815E-03 0.458E-03 0.696E-03   0.768E-13 0.364E-13 0.799E-14   0.516E-04 0.839E-05 0.815E-04   -.844E-03 -.462E-03 -.750E-03
   0.108E-02 0.336E-03 0.328E-04   0.497E-13 0.711E-13 -.711E-14   0.701E-04 0.347E-04 -.573E-04   -.112E-02 -.342E-03 -.320E-04
   0.420E-03 0.617E-04 -.941E-03   0.906E-13 -.355E-14 -.213E-13   0.426E-04 0.304E-04 -.285E-04   -.431E-03 -.668E-04 0.960E-03
   -.651E-03 0.572E-03 -.535E-03   0.346E-13 0.782E-13 0.138E-13   -.337E-04 0.269E-04 -.603E-04   0.687E-03 -.584E-03 0.563E-03
   -.399E-03 -.961E-03 -.242E-03   0.120E-12 0.728E-13 0.413E-13   -.230E-04 -.402E-04 -.224E-04   0.419E-03 0.975E-03 0.240E-03
   -.695E-03 -.324E-03 -.951E-04   0.480E-13 0.924E-13 -.169E-13   -.344E-04 -.122E-04 -.148E-04   0.706E-03 0.325E-03 0.957E-04
   -.915E-03 0.227E-03 0.672E-03   0.622E-14 0.103E-12 0.195E-13   -.716E-04 -.856E-05 0.638E-04   0.932E-03 -.241E-03 -.674E-03
   0.768E-03 -.736E-03 -.137E-02   0.919E-13 0.147E-13 -.252E-14   0.486E-04 0.258E-04 0.216E-04   -.767E-03 0.688E-03 0.133E-02
   -.376E-03 -.155E-02 -.293E-03   0.105E-12 0.124E-13 0.145E-14   -.142E-04 0.108E-03 -.353E-04   0.341E-03 0.141E-02 0.289E-03
   0.114E-02 -.138E-02 -.942E-03   0.111E-12 0.298E-13 0.103E-14   0.146E-04 -.617E-04 -.869E-04   -.115E-02 0.139E-02 0.104E-02
   0.329E-02 0.690E-03 -.842E-03   0.977E-13 0.124E-13 0.323E-14   0.411E-04 0.203E-05 -.659E-04   -.321E-02 -.653E-03 0.812E-03
   -.807E-03 0.102E-02 0.134E-04   0.101E-12 0.187E-13 0.991E-14   -.162E-03 0.173E-04 0.647E-04   0.907E-03 -.973E-03 -.348E-04
   -.135E-02 -.993E-03 -.697E-03   0.639E-13 0.355E-13 -.921E-14   -.211E-04 -.637E-05 0.129E-04   0.134E-02 0.988E-03 0.644E-03
   0.182E-04 -.592E-03 -.297E-04   0.105E-12 0.218E-13 -.963E-14   0.290E-04 -.325E-05 0.110E-03   -.916E-05 0.564E-03 -.212E-04
   -.778E-03 0.576E-03 -.105E-02   0.906E-13 0.107E-13 0.856E-14   0.437E-04 0.731E-04 0.442E-04   0.733E-03 -.641E-03 0.950E-03
   0.655E-03 0.100E-02 0.128E-02   0.107E-12 0.112E-13 0.711E-14   -.415E-04 -.103E-03 0.218E-05   -.621E-03 -.841E-03 -.123E-02
   0.155E-02 0.375E-04 0.237E-02   0.857E-13 0.117E-13 0.000E+00   0.107E-03 -.355E-04 0.630E-04   -.158E-02 0.283E-05 -.235E-02
   0.930E-03 0.935E-03 0.804E-03   0.853E-13 0.143E-13 0.355E-14   0.238E-04 0.480E-04 0.744E-05   -.940E-03 -.996E-03 -.773E-03
   0.142E-02 0.950E-03 -.995E-03   0.853E-13 0.857E-14 -.355E-14   -.358E-04 0.390E-04 0.862E-04   -.138E-02 -.974E-03 0.871E-03
   -.225E-03 -.581E-03 0.645E-03   0.675E-13 0.104E-13 0.000E+00   -.836E-04 0.537E-04 0.220E-04   0.312E-03 0.547E-03 -.614E-03
   -.764E-03 -.128E-03 0.104E-02   0.835E-13 0.992E-14 0.711E-14   0.355E-04 -.339E-04 0.217E-04   0.711E-03 0.172E-03 -.105E-02
   -.653E-03 -.355E-04 0.141E-02   0.941E-13 -.475E-14 0.355E-14   0.306E-05 -.140E-04 -.806E-04   0.651E-03 0.833E-05 -.128E-02
   -.983E-03 0.739E-03 -.136E-02   0.941E-13 0.246E-13 -.355E-14   -.400E-04 -.865E-04 -.185E-03   0.102E-02 -.666E-03 0.143E-02
   -.779E-03 0.109E-04 0.435E-03   0.305E-13 -.577E-14 -.182E-13   0.612E-04 -.694E-05 0.687E-04   0.704E-03 0.254E-04 -.450E-03
   0.121E-02 -.460E-03 -.897E-03   0.438E-13 -.577E-14 0.488E-14   0.753E-04 0.163E-03 -.934E-04   -.122E-02 0.317E-03 0.887E-03
   -.584E-03 -.678E-03 0.471E-03   0.425E-13 0.311E-14 -.933E-14   -.690E-04 0.191E-05 -.375E-04   0.643E-03 0.630E-03 -.412E-03
   -.140E-02 0.505E-03 0.111E-02   0.509E-13 -.755E-14 -.755E-14   -.115E-03 0.107E-03 0.258E-04   0.143E-02 -.561E-03 -.109E-02
   0.551E-03 -.336E-03 0.174E-02   0.309E-13 -.124E-13 -.888E-14   0.271E-05 0.224E-04 -.291E-04   -.541E-03 0.338E-03 -.165E-02
   0.793E-03 -.135E-02 0.103E-02   0.664E-13 0.178E-14 -.355E-14   0.416E-05 -.156E-04 0.190E-05   -.764E-03 0.135E-02 -.997E-03
   0.121E-03 -.300E-03 0.179E-02   0.450E-13 0.355E-14 -.888E-14   0.943E-04 -.396E-05 -.181E-04   -.212E-03 0.276E-03 -.170E-02
   -.179E-02 -.281E-03 -.501E-03   0.361E-13 -.107E-13 -.888E-14   -.473E-04 -.142E-03 0.317E-04   0.177E-02 0.354E-03 0.413E-03
   -.240E-03 -.385E-04 0.107E-03   0.605E-14 -.118E-13 -.105E-13   0.487E-04 0.266E-04 -.558E-04   0.193E-03 0.619E-04 -.344E-05
   -.111E-02 -.629E-03 -.154E-02   0.344E-13 -.828E-14 -.258E-14   -.368E-04 -.109E-03 -.703E-04   0.107E-02 0.711E-03 0.150E-02
   -.229E-03 -.479E-04 0.141E-03   0.384E-13 -.174E-13 -.106E-13   0.158E-05 -.137E-03 0.126E-03   0.230E-03 0.939E-04 -.224E-03
   -.579E-04 0.135E-02 0.132E-03   0.420E-13 -.209E-13 -.805E-14   -.836E-04 -.501E-04 0.486E-04   0.137E-03 -.128E-02 -.190E-03
   0.167E-03 0.657E-03 -.186E-02   0.468E-13 -.159E-13 -.396E-14   -.647E-05 0.435E-04 0.127E-04   -.147E-03 -.658E-03 0.180E-02
   -.233E-04 0.817E-03 -.205E-02   0.450E-13 -.159E-13 -.851E-14   -.262E-04 -.327E-04 0.123E-04   0.606E-04 -.732E-03 0.195E-02
   -.796E-03 0.109E-02 -.491E-03   0.272E-13 -.250E-13 -.541E-15   0.196E-04 0.105E-03 0.494E-04   0.727E-03 -.115E-02 0.480E-03
   0.345E-03 -.310E-03 0.309E-03   0.272E-13 -.146E-15 -.157E-13   0.121E-03 0.383E-04 -.352E-04   -.434E-03 0.226E-03 -.290E-03
 -----------------------------------------------------------------------------------------------
   -.234E-04 0.111E-03 0.546E-04   0.155E-12 0.232E-12 0.419E-13   0.103E-04 0.580E-04 0.421E-04   0.870E-04 -.156E-03 -.139E-03
 
 
 POSITION                                       TOTAL-FORCE (eV/Angst)
 -----------------------------------------------------------------------------------
      0.00000      0.00000      0.00000         0.000122      0.000030      0.000002
      0.00000      0.00000      5.95493        -0.000015     -0.000024     -0.000049
      0.00000      5.95493      0.00000         0.000005     -0.000057      0.000061
      0.00000      5.95493      5.95493        -0.000110      0.000014     -0.000026
      5.95493      0.00000      0.00000        -0.000042      0.000004     -0.000071
      5.95493      0.00000      5.95493        -0.000004      0.000029     -0.000057
      5.95493      5.95493      0.00000        -0.000046     -0.000166     -0.000043
      5.95493      5.95493      5.95493         0.000072      0.000012     -0.000129
      0.00000      2.97747      2.97747         0.000097      0.000134      0.000114
      0.00000      2.97747      8.93240        -0.000080     -0.000005      0.000045
      0.00000      8.93240      2.97747        -0.000079      0.000022      0.000059
      0.00000      8.93240      8.93240         0.000066     -0.000121     -0.000175
      5.95493      2.97747      2.97747         0.000041      0.000016      0.000059
      5.95493      2.97747      8.93240        -0.000045      0.000058      0.000026
      5.95493      8.93240      2.97747         0.000037     -0.000037      0.000189
      5.95493      8.93240      8.93240        -0.000048      0.000097      0.000004
      2.97747      0.00000      2.97747         0.000024      0.000009      0.000090
      2.97747      0.00000      8.93240         0.000023     -0.000062     -0.000023
      2.97747      5.95493      2.97747        -0.000048     -0.000117      0.000047
      2.97747      5.95493      8.93240         0.000092     -0.000062      0.000086
      8.93240      0.00000      2.97747        -0.000016     -0.000030      0.000195
      8.93240      0.00000      8.93240        -0.000102      0.000116     -0.000094
      8.93240      5.95493      2.97747        -0.000040      0.000010      0.000086
      8.93240      5.95493      8.93240         0.000104     -0.000037     -0.000070
      2.97747      2.97747      0.00000         0.000020      0.000124      0.000008
      2.97747      2.97747      5.95493         0.000042     -0.000030     -0.000087
      2.97747      8.93240      0.00000         0.000029      0.000060     -0.000081
      2.97747      8.93240      5.95493         0.000002      0.000066     -0.000059
      8.93240      2.97747      0.00000        -0.000071      0.000093     -0.000076
      8.93240      2.97747      5.95493         0.000013      0.000011     -0.000078
      8.93240      8.93240      0.00000        -0.000014     -0.000078      0.000095
      8.93240      8.93240      5.95493         0.000022     -0.000069     -0.000062
      1.48873      1.48873      4.46620         0.000047     -0.000048     -0.000035
      1.48873      1.48873     10.42113        -0.000001      0.000000      0.000004
      1.48873      7.44366      4.46620        -0.000048      0.000054      0.000016
      1.48873      7.44366     10.42113         0.000010      0.000017     -0.000005
      7.44366      1.48873      4.46620        -0.000038     -0.000056     -0.000027
      7.44366      1.48873     10.42113        -0.000019     -0.000041      0.000020
      7.44366      7.44366      4.46620        -0.000032      0.000057     -0.000002
      7.44366      7.44366     10.42113         0.000009      0.000040      0.000041
      1.48873      4.46620      1.48873        -0.000013     -0.000079     -0.000095
      1.48873      4.46620      7.44366         0.000010     -0.000020      0.000024
      1.48873     10.42113      1.48873         0.000004      0.000039      0.000030
      1.48873     10.42113      7.44366         0.000009      0.000037      0.000066
      7.44366      4.46620      1.48873        -0.000029      0.000018     -0.000027
      7.44366      4.46620      7.44366        -0.000042      0.000033      0.000072
      7.44366     10.42113      1.48873         0.000011     -0.000034     -0.000068
      7.44366     10.42113      7.44366        -0.000016     -0.000021     -0.000002
      4.46620      1.48873      1.48873        -0.000028     -0.000044     -0.000020
      4.46620      1.48873      7.44366         0.000014     -0.000030      0.000019
      4.46620      7.44366      1.48873         0.000114      0.000062     -0.000055
      4.46620      7.44366      7.44366         0.000039     -0.000001      0.000043
     10.42113      1.48873      1.48873        -0.000015     -0.000048     -0.000034
     10.42113      1.48873      7.44366         0.000036     -0.000023      0.000078
     10.42113      7.44366      1.48873        -0.000049      0.000081     -0.000057
     10.42113      7.44366      7.44366        -0.000054      0.000033      0.000024
      4.46620      4.46620      4.46620         0.000049     -0.000046      0.000058
      4.46620      4.46620     10.42113         0.000021      0.000004      0.000028
      4.46620     10.42113      4.46620         0.000034      0.000028     -0.000056
      4.46620     10.42113     10.42113         0.000030      0.000025     -0.000010
     10.42113      4.46620      4.46620         0.000001      0.000015     -0.000032
     10.42113      4.46620     10.42113        -0.000004     -0.000026     -0.000024
     10.42113     10.42113      4.46620        -0.000023     -0.000011     -0.000014
     10.42113     10.42113     10.42113        -0.000055     -0.000023      0.000062
      2.97747      0.00000      0.00000         0.000049     -0.000023     -0.000014
      2.97747      0.00000      5.95493        -0.000050     -0.000033     -0.000039
      2.97747      5.95493      0.00000         0.000005     -0.000053      0.000009
      2.97747      5.95493      5.95493         0.000119      0.000038     -0.000096
      8.93240      0.00000      0.00000        -0.000062      0.000063      0.000044
      8.93240      0.00000      5.95493        -0.000032     -0.000012     -0.000040
      8.93240      5.95493      0.00000         0.000037     -0.000031      0.000060
      8.93240      5.95493      5.95493        -0.000003      0.000009     -0.000056
      2.97747      2.97747      2.97747        -0.000009      0.000057      0.000054
      2.97747      2.97747      8.93240         0.000075      0.000005      0.000083
      2.97747      8.93240      2.97747         0.000013     -0.000013      0.000039
      2.97747      8.93240      8.93240         0.000005      0.000015     -0.000037
      8.93240      2.97747      2.97747         0.000002      0.000019      0.000053
      8.93240      2.97747      8.93240        -0.000018      0.000010      0.000004
      8.93240      8.93240      2.97747        -0.000000     -0.000041      0.000051
      8.93240      8.93240      8.93240        -0.000003     -0.000014     -0.000114
      0.00000      0.00000      2.97747        -0.000015      0.000029      0.000054
      0.00000      0.00000      8.93240         0.000061      0.000019     -0.000103
      0.00000      5.95493      2.97747        -0.000012     -0.000047      0.000022
      0.00000      5.95493      8.93240        -0.000080      0.000050      0.000049
      5.95493      0.00000      2.97747         0.000012      0.000025      0.000062
      5.95493      0.00000      8.93240         0.000032     -0.000017      0.000035
      5.95493      5.95493      2.97747         0.000003     -0.000027      0.000070
      5.95493      5.95493      8.93240        -0.000076     -0.000070     -0.000056
      0.00000      2.97747      0.00000         0.000001      0.000050      0.000048
      0.00000      2.97747      5.95493        -0.000079     -0.000027     -0.000107
      0.00000      8.93240      0.00000         0.000002     -0.000091      0.000044
      0.00000      8.93240      5.95493        -0.000006      0.000016     -0.000008
      5.95493      2.97747      0.00000         0.000012      0.000042     -0.000041
      5.95493      2.97747      5.95493         0.000010      0.000052     -0.000095
      5.95493      8.93240      0.00000        -0.000050      0.000042      0.000039
      5.95493      8.93240      5.95493         0.000031     -0.000046     -0.000015
 -----------------------------------------------------------------------------------
    total drift:                                0.000074      0.000013     -0.000043


--------------------------------------------------------------------------------------------------------



  FREE ENERGIE OF THE ION-ELECTRON SYSTEM (eV)
  ---------------------------------------------------
  free  energy   TOTEN  =      -757.01566410 eV

  energy  without entropy=     -757.01566410  energy(sigma->0) =     -757.01566410
 


--------------------------------------------------------------------------------------------------------


    POTLOK:  cpu time      0.0828: real time      0.0834


--------------------------------------------------------------------------------------------------------


     LOOP+:  cpu time   6184.1199: real time   6286.9470
    4ORBIT:  cpu time      0.0000: real time      0.0000

 total amount of memory used by VASP MPI-rank0   341150. kBytes
=======================================================================

   base      :      30000. kBytes
   nonl-proj :      92001. kBytes
   fftplans  :       6154. kBytes
   grid      :      10177. kBytes
   one-center:        186. kBytes
   wavefun   :     202632. kBytes
 
  
  
 General timing and accounting informations for this job:
 ========================================================
  
                  Total CPU time used (sec):     6264.741
                            User time (sec):     6195.645
                          System time (sec):       69.096
                         Elapsed time (sec):     6370.363
  
                   Maximum memory used (kb):      559700.
                   Average memory used (kb):          N/A
  
                          Minor page faults:        96958
                          Major page faults:         8545
                 Voluntary context switches:          746
