 vasp.6.3.0 20Jan22 (build Oct 14 2024 11:24:38) complex                        
  
 executed on             LinuxIFC date 2025.05.02  12:42:49
 running on   64 total cores
 distrk:  each k-point on   64 cores,    1 groups
 distr:  one band on NCORE=   8 cores,    8 groups


--------------------------------------------------------------------------------------------------------


 INCAR:
   ISTART = 0            (Read existing wavefunction
   ISPIN = 1            (Non-Spin polarised DFT)
   LREAL = .FALSE.       (Projection operators: automatic)
   ENCUT = 500          (Cut-off energy for plane wave basis set, in eV)
   PREC = Accurate     (Precision level)
   LWAVE = .FALSE.       (Write WAVECAR or not)
   LCHARG = .FALSE.       (Write CHGCAR or not)
   ISYM = 0             (0: disable symmetry)
   SYMPREC = 1E-06         (Symmetry detection precision, default\=1E-5)
   NSW = 0
   IBRION = -1
   ISMEAR = 0            (gaussian smearing method)
   SIGMA = 0.05         (please check the width of the smearing)
   NELM = 60           (Max electronic SCF steps)
   EDIFF = 1E-06        (SCF energy convergence
   NCORE = 8             (square root of total cores)

 POTCAR:    PAW_PBE Mn_pv 02Aug2007               
 POTCAR:    PAW_PBE Nb_sv 25May2007               
 POTCAR:    PAW_PBE Fe 06Sep2000                  
 POTCAR:    PAW_PBE Sb 06Sep2000                  
 POTCAR:    PAW_PBE Mn_pv 02Aug2007               
   VRHFIN =Mn: 3p4s3d                                                                               
   LEXCH  = PE                                                                                      
   EATOM  =  2025.2664 eV,  148.8529 Ry                                                             
                                                                                                    
   TITEL  = PAW_PBE Mn_pv 02Aug2007                                                                 
   LULTRA =        F    use ultrasoft PP ?                                                          
   IUNSCR =        1    unscreen: 0-lin 1-nonlin 2-no                                               
   RPACOR =    2.080    partial core radius                                                         
   POMASS =   54.938; ZVAL   =   13.000    mass and valenz                                          
   RCORE  =    2.300    outmost cutoff radius                                                       
   RWIGS  =    2.500; RWIGS  =    1.323    wigner-seitz radius (au A)                               
   ENMAX  =  269.864; ENMIN  =  202.398 eV                                                          
   ICORE  =        3    local potential                                                             
   LCOR   =        T    correct aug charges                                                         
   LPAW   =        T    paw PP                                                                      
   EAUG   =  569.085                                                                                
   DEXC   =    0.000                                                                                
   RMAX   =    2.343    core radius for proj-oper                                                   
   RAUG   =    1.300    factor for augmentation sphere                                              
   RDEP   =    2.338    radius for radial grids                                                     
   RDEPT  =    1.798    core radius for aug-charge                                                  
                                                                                                    
   Atomic configuration                                                                             
    8 entries                                                                                       
     n  l   j            E        occ.                                                              
     1  0  0.50     -6424.8287   2.0000                                                             
     2  0  0.50      -739.1154   2.0000                                                             
     2  1  1.50      -625.3949   6.0000                                                             
     3  0  0.50       -81.6100   2.0000                                                             
     3  1  1.50       -50.4667   6.0000                                                             
     3  2  2.50        -3.3745   6.0000                                                             
     4  0  0.50        -4.1331   1.0000                                                             
     4  3  2.50        -1.3606   0.0000                                                             
   Description                                                                                      
     l       E           TYP  RCUT    TYP  RCUT                                                     
     1    -50.4666628     23  2.000                                                                 
     1     -1.3605826     23  2.000                                                                 
     2     -3.3744729     23  2.300                                                                 
     2     -4.7350555     23  2.300                                                                 
     0     -4.1331431     23  2.300                                                                 
     0      7.6656591     23  2.300                                                                 
     3      9.5240782     23  2.300                                                                 
  local pseudopotential read in
  partial core-charges read in
  partial kinetic energy density read in
  atomic valenz-charges read in
  non local Contribution for L=           1  read in
    real space projection operators read in
  non local Contribution for L=           1  read in
    real space projection operators read in
  non local Contribution for L=           2  read in
    real space projection operators read in
  non local Contribution for L=           2  read in
    real space projection operators read in
  non local Contribution for L=           0  read in
    real space projection operators read in
  non local Contribution for L=           0  read in
    real space projection operators read in
    PAW grid and wavefunctions read in
 
   number of l-projection  operators is LMAX  =           6
   number of lm-projection operators is LMMAX =          18
 
 POTCAR:    PAW_PBE Nb_sv 25May2007               
   VRHFIN =Nb: 4p5s4d                                                                               
   LEXCH  = PE                                                                                      
   EATOM  =  1555.1913 eV,  114.3033 Ry                                                             
                                                                                                    
   TITEL  = PAW_PBE Nb_sv 25May2007                                                                 
   LULTRA =        F    use ultrasoft PP ?                                                          
   IUNSCR =        1    unscreen: 0-lin 1-nonlin 2-no                                               
   RPACOR =    1.800    partial core radius                                                         
   POMASS =   92.910; ZVAL   =   13.000    mass and valenz                                          
   RCORE  =    2.400    outmost cutoff radius                                                       
   RWIGS  =    2.400; RWIGS  =    1.270    wigner-seitz radius (au A)                               
   ENMAX  =  293.235; ENMIN  =  219.927 eV                                                          
   ICORE  =        3    local potential                                                             
   LCOR   =        T    correct aug charges                                                         
   LPAW   =        T    paw PP                                                                      
   EAUG   =  455.659                                                                                
   DEXC   =    0.000                                                                                
   RMAX   =    2.456    core radius for proj-oper                                                   
   RAUG   =    1.300    factor for augmentation sphere                                              
   RDEP   =    2.451    radius for radial grids                                                     
   RDEPT  =    1.956    core radius for aug-charge                                                  
                                                                                                    
   Atomic configuration                                                                             
   11 entries                                                                                       
     n  l   j            E        occ.                                                              
     1  0  0.50    -18805.2457   2.0000                                                             
     2  0  0.50     -2630.2869   2.0000                                                             
     2  1  1.50     -2348.4046   6.0000                                                             
     3  0  0.50      -438.8757   2.0000                                                             
     3  1  1.50      -346.7588   6.0000                                                             
     3  2  2.50      -196.2560  10.0000                                                             
     4  0  0.50       -58.3859   2.0000                                                             
     5  0  0.50        -3.9816   1.0000                                                             
     4  1  1.50       -34.5141   6.0000                                                             
     4  2  2.50        -3.0408   4.0000                                                             
     4  3  2.50        -1.3606   0.0000                                                             
   Description                                                                                      
     l       E           TYP  RCUT    TYP  RCUT                                                     
     0    -58.3859094     23  2.200                                                                 
     0     -3.9816262     23  2.200                                                                 
     1    -34.5140738     23  2.200                                                                 
     1     13.6058260     23  2.200                                                                 
     2     -3.0408010     23  2.200                                                                 
     2     -0.1283038     23  2.200                                                                 
     3     -1.3605826     23  2.400                                                                 
  local pseudopotential read in
  partial core-charges read in
  partial kinetic energy density read in
  atomic valenz-charges read in
  non local Contribution for L=           0  read in
    real space projection operators read in
  non local Contribution for L=           0  read in
    real space projection operators read in
  non local Contribution for L=           1  read in
    real space projection operators read in
  non local Contribution for L=           1  read in
    real space projection operators read in
  non local Contribution for L=           2  read in
    real space projection operators read in
  non local Contribution for L=           2  read in
    real space projection operators read in
    PAW grid and wavefunctions read in
 
   number of l-projection  operators is LMAX  =           6
   number of lm-projection operators is LMMAX =          18
 
 POTCAR:    PAW_PBE Fe 06Sep2000                  
   VRHFIN =Fe:  d7 s1                                                                               
   LEXCH  = PE                                                                                      
   EATOM  =   594.3153 eV,   43.6809 Ry                                                             
                                                                                                    
   TITEL  = PAW_PBE Fe 06Sep2000                                                                    
   LULTRA =        F    use ultrasoft PP ?                                                          
   IUNSCR =        1    unscreen: 0-lin 1-nonlin 2-no                                               
   RPACOR =    2.000    partial core radius                                                         
   POMASS =   55.847; ZVAL   =    8.000    mass and valenz                                          
   RCORE  =    2.300    outmost cutoff radius                                                       
   RWIGS  =    2.460; RWIGS  =    1.302    wigner-seitz radius (au A)                               
   ENMAX  =  267.882; ENMIN  =  200.911 eV                                                          
   RCLOC  =    1.701    cutoff for local pot                                                        
   LCOR   =        T    correct aug charges                                                         
   LPAW   =        T    paw PP                                                                      
   EAUG   =  511.368                                                                                
   DEXC   =    0.000                                                                                
   RMAX   =    2.356    core radius for proj-oper                                                   
   RAUG   =    1.300    factor for augmentation sphere                                              
   RDEP   =    2.442    radius for radial grids                                                     
   RDEPT  =    1.890    core radius for aug-charge                                                  
                                                                                                    
   Atomic configuration                                                                             
    9 entries                                                                                       
     n  l   j            E        occ.                                                              
     1  0  0.50     -6993.8440   2.0000                                                             
     2  0  0.50      -814.6047   2.0000                                                             
     2  1  1.50      -693.3689   6.0000                                                             
     3  0  0.50       -89.4732   2.0000                                                             
     3  1  1.50       -55.6373   6.0000                                                             
     3  2  2.50        -3.8151   7.0000                                                             
     4  0  0.50        -4.2551   1.0000                                                             
     4  1  1.50        -3.4015   0.0000                                                             
     4  3  2.50        -1.3606   0.0000                                                             
   Description                                                                                      
     l       E           TYP  RCUT    TYP  RCUT                                                     
     2     -3.8151135     23  2.300                                                                 
     2     -5.1756961     23  2.300                                                                 
     0     -4.2550963     23  2.300                                                                 
     0      7.2035603     23  2.300                                                                 
     1     -2.7211652     23  2.300                                                                 
     1     18.4316424     23  2.300                                                                 
  local pseudopotential read in
  partial core-charges read in
  partial kinetic energy density read in
  atomic valenz-charges read in
  non local Contribution for L=           2  read in
    real space projection operators read in
  non local Contribution for L=           2  read in
    real space projection operators read in
  non local Contribution for L=           0  read in
    real space projection operators read in
  non local Contribution for L=           0  read in
    real space projection operators read in
  non local Contribution for L=           1  read in
    real space projection operators read in
  non local Contribution for L=           1  read in
    real space projection operators read in
    PAW grid and wavefunctions read in
 
   number of l-projection  operators is LMAX  =           6
   number of lm-projection operators is LMMAX =          18
 
 POTCAR:    PAW_PBE Sb 06Sep2000                  
   VRHFIN =Sb: s2p3                                                                                 
   LEXCH  = PE                                                                                      
   EATOM  =   149.9515 eV,   11.0211 Ry                                                             
                                                                                                    
   TITEL  = PAW_PBE Sb 06Sep2000                                                                    
   LULTRA =        F    use ultrasoft PP ?                                                          
   IUNSCR =        1    unscreen: 0-lin 1-nonlin 2-no                                               
   RPACOR =    2.200    partial core radius                                                         
   POMASS =  121.750; ZVAL   =    5.000    mass and valenz                                          
   RCORE  =    2.300    outmost cutoff radius                                                       
   RWIGS  =    2.980; RWIGS  =    1.577    wigner-seitz radius (au A)                               
   ENMAX  =  172.069; ENMIN  =  129.052 eV                                                          
   ICORE  =        3    local potential                                                             
   LCOR   =        T    correct aug charges                                                         
   LPAW   =        T    paw PP                                                                      
   EAUG   =  380.513                                                                                
   DEXC   =    0.000                                                                                
   RMAX   =    2.346    core radius for proj-oper                                                   
   RAUG   =    1.300    factor for augmentation sphere                                              
   RDEP   =    2.360    radius for radial grids                                                     
   RDEPT  =    2.192    core radius for aug-charge                                                  
                                                                                                    
   Atomic configuration                                                                             
   13 entries                                                                                       
     n  l   j            E        occ.                                                              
     1  0  0.50    -30298.2797   2.0000                                                             
     2  0  0.50     -4610.2252   2.0000                                                             
     2  1  1.50     -4138.3407   6.0000                                                             
     3  0  0.50      -903.8815   2.0000                                                             
     3  1  1.50      -750.1337   6.0000                                                             
     3  2  2.50      -515.7092  10.0000                                                             
     4  0  0.50      -148.8034   2.0000                                                             
     4  1  1.50      -101.7581   6.0000                                                             
     4  2  2.50       -33.5048  10.0000                                                             
     5  0  0.50       -12.8298   2.0000                                                             
     5  1  0.50        -4.8276   3.0000                                                             
     5  2  1.50        -4.0817   0.0000                                                             
     4  3  2.50        -4.0817   0.0000                                                             
   Description                                                                                      
     l       E           TYP  RCUT    TYP  RCUT                                                     
     0    -12.8297861     23  2.300                                                                 
     0     13.6058260     23  2.300                                                                 
     1     -4.8275512     23  2.300                                                                 
     1     -0.7245443     23  2.300                                                                 
     2     -4.0817478     23  2.300                                                                 
     3     -1.3605826     23  2.300                                                                 
  local pseudopotential read in
  partial core-charges read in
  partial kinetic energy density read in
  atomic valenz-charges read in
  non local Contribution for L=           0  read in
    real space projection operators read in
  non local Contribution for L=           0  read in
    real space projection operators read in
  non local Contribution for L=           1  read in
    real space projection operators read in
  non local Contribution for L=           1  read in
    real space projection operators read in
  non local Contribution for L=           2  read in
    real space projection operators read in
    PAW grid and wavefunctions read in
 
   number of l-projection  operators is LMAX  =           5
   number of lm-projection operators is LMMAX =          13
 
 -----------------------------------------------------------------------------
|                                                                             |
|               ----> ADVICE to this user running VASP <----                  |
|                                                                             |
|     You have a (more or less) 'large supercell' and for larger cells it     |
|     might be more efficient to use real-space projection operators.         |
|     Therefore, try LREAL= Auto in the INCAR file.                           |
|     Mind: For very accurate calculation, you might also keep the            |
|     reciprocal projection scheme (i.e. LREAL=.FALSE.).                      |
|                                                                             |
 -----------------------------------------------------------------------------

  PAW_PBE Mn_pv 02Aug2007               :
 energy of atom  1       EATOM=-2025.2664
 kinetic energy error for atom=    0.0062 (will be added to EATOM!!)
  PAW_PBE Nb_sv 25May2007               :
 energy of atom  2       EATOM=-1555.1913
 kinetic energy error for atom=    0.0069 (will be added to EATOM!!)
  PAW_PBE Fe 06Sep2000                  :
 energy of atom  3       EATOM= -594.3153
 kinetic energy error for atom=    0.0026 (will be added to EATOM!!)
  PAW_PBE Sb 06Sep2000                  :
 energy of atom  4       EATOM= -149.9515
 kinetic energy error for atom=    0.0005 (will be added to EATOM!!)
 
 
 POSCAR: Relexed NbFeSb 2x2x2 supercell with inte
  positions in direct lattice
  velocities in cartesian coordinates
 exchange correlation table for  LEXCH =        8
   RHO(1)=    0.500       N(1)  =     2000
   RHO(2)=  100.500       N(2)  =     4000
 


--------------------------------------------------------------------------------------------------------


 ion  position               nearest neighbor table
   1  0.125  0.125  0.125-  10 2.62  18 2.62   2 2.62  26 2.62  66 2.66  74 2.66  82 2.66  90 2.66
                            50 2.94  54 2.94  34 2.94  35 2.94  42 2.94  44 2.94
   2  0.998  0.998  0.998-  65 2.56  44 2.57  54 2.57  35 2.57   1 2.62  70 2.95  83 2.95  92 2.95
                            82 3.05  90 3.05  66 3.05
   3  1.000  1.000  0.501-  45 2.57  55 2.57  64 2.59  34 2.61  82 2.95  83 2.97  71 2.98  93 2.98
                            91 2.98  67 2.98
   4  1.000  0.501  1.000-  37 2.57  56 2.57  63 2.59  42 2.61  90 2.95  92 2.97  72 2.98  85 2.98
                            84 2.98  68 2.98
   5  1.000  0.500  0.500-  62 2.57  57 2.57  43 2.59  36 2.59  85 2.97  93 2.97  73 2.98  69 2.98
                            84 2.98  91 2.98
   6  0.501  1.000  1.000-  39 2.57  48 2.57  61 2.59  50 2.61  66 2.95  70 2.97  87 2.98  96 2.98
                            94 2.98  86 2.98
   7  0.500  1.000  0.500-  60 2.57  49 2.57  51 2.59  38 2.59  71 2.97  87 2.97  97 2.98  95 2.98
                            86 2.98  67 2.98
   8  0.500  0.500  1.000-  59 2.57  41 2.57  46 2.59  52 2.59  72 2.97  96 2.97  89 2.98  88 2.98
                            94 2.98  68 2.98
   9  0.500  0.500  0.500-  58 2.55  47 2.58  53 2.58  40 2.58  73 2.97  89 2.97  97 2.97  69 2.98
                            88 2.98  95 2.98
  10  0.998  0.252  0.252-  62 2.56  34 2.57  54 2.57  42 2.57   1 2.62  78 2.95  84 2.95  91 2.95
                            74 3.05  90 3.05  82 3.05
  11  1.000  0.250  0.749-  43 2.57  55 2.57  63 2.59  35 2.61  90 2.95  91 2.97  79 2.98  85 2.98
                            83 2.98  75 2.98
  12  1.000  0.749  0.250-  36 2.57  56 2.57  64 2.59  44 2.61  82 2.95  84 2.97  80 2.98  93 2.98
                            92 2.98  76 2.98
  13  1.000  0.750  0.750-  65 2.57  57 2.57  37 2.59  45 2.59  85 2.97  93 2.97  81 2.98  77 2.98
                            92 2.98  83 2.98
  14  0.501  0.250  0.250-  38 2.57  46 2.57  58 2.59  50 2.61  74 2.95  78 2.97  88 2.98  95 2.98
                            94 2.98  86 2.98
  15  0.500  0.250  0.750-  59 2.57  47 2.57  39 2.59  51 2.59  79 2.97  95 2.97  89 2.98  87 2.98
                            94 2.98  75 2.98
  16  0.500  0.750  0.250-  60 2.57  40 2.57  48 2.59  52 2.59  80 2.97  88 2.97  97 2.98  96 2.98
                            86 2.98  76 2.98
  17  0.500  0.750  0.750-  61 2.55  41 2.58  53 2.58  49 2.58  81 2.97  89 2.97  97 2.97  96 2.98
                            77 2.98  87 2.98
  18  0.252  0.998  0.252-  60 2.56  34 2.57  50 2.57  44 2.57   1 2.62  67 2.95  76 2.95  86 2.95
                            66 3.05  82 3.05  74 3.05
  19  0.250  1.000  0.749-  45 2.57  51 2.57  61 2.59  35 2.61  66 2.95  67 2.97  77 2.98  87 2.98
                            83 2.98  75 2.98
  20  0.250  0.501  0.250-  36 2.57  52 2.57  58 2.59  42 2.61  74 2.95  76 2.97  69 2.98  88 2.98
                            84 2.98  68 2.98
  21  0.250  0.500  0.750-  59 2.57  53 2.57  37 2.59  43 2.59  69 2.97  77 2.97  89 2.98  85 2.98
                            68 2.98  75 2.98
  22  0.749  1.000  0.250-  38 2.57  48 2.57  64 2.59  54 2.61  82 2.95  86 2.97  71 2.98  80 2.98
                            78 2.98  70 2.98
  23  0.750  1.000  0.750-  65 2.57  49 2.57  39 2.59  55 2.59  71 2.97  87 2.97  81 2.98  79 2.98
                            83 2.98  70 2.98
  24  0.750  0.500  0.250-  62 2.57  40 2.57  46 2.59  56 2.59  80 2.97  88 2.97  73 2.98  72 2.98
                            84 2.98  78 2.98
  25  0.750  0.500  0.750-  63 2.55  41 2.58  57 2.58  47 2.58  73 2.97  81 2.97  89 2.97  85 2.98
                            72 2.98  79 2.98
  26  0.252  0.252  0.998-  59 2.56  42 2.57  50 2.57  35 2.57   1 2.62  68 2.95  75 2.95  94 2.95
                            66 3.05  90 3.05  74 3.05
  27  0.250  0.250  0.501-  43 2.57  51 2.57  58 2.59  34 2.61  74 2.95  75 2.97  69 2.98  95 2.98
                            91 2.98  67 2.98
  28  0.250  0.749  1.000-  37 2.57  52 2.57  61 2.59  44 2.61  66 2.95  68 2.97  77 2.98  96 2.98
                            92 2.98  76 2.98
  29  0.250  0.750  0.500-  60 2.57  53 2.57  45 2.59  36 2.59  69 2.97  77 2.97  97 2.98  93 2.98
                            76 2.98  67 2.98
  30  0.749  0.250  1.000-  39 2.57  46 2.57  63 2.59  54 2.61  90 2.95  94 2.97  72 2.98  79 2.98
                            78 2.98  70 2.98
  31  0.750  0.250  0.500-  62 2.57  47 2.57  55 2.59  38 2.59  79 2.97  95 2.97  73 2.98  71 2.98
                            91 2.98  78 2.98
  32  0.750  0.750  1.000-  65 2.57  41 2.57  48 2.59  56 2.59  72 2.97  96 2.97  81 2.98  80 2.98
                            92 2.98  70 2.98
  33  0.750  0.750  0.500-  64 2.55  49 2.58  57 2.58  40 2.58  73 2.97  81 2.97  97 2.97  93 2.98
                            80 2.98  71 2.98
  34  0.125  0.125  0.372-  10 2.57  18 2.57  74 2.58  82 2.58  67 2.59  91 2.59   3 2.61  27 2.61
                             1 2.94
  35  0.125  0.125  0.878-   2 2.57  26 2.57  66 2.58  90 2.58  83 2.59  75 2.59  19 2.61  11 2.61
                             1 2.94
  36  0.125  0.625  0.374-  12 2.57  20 2.57  76 2.57  84 2.57  69 2.58  93 2.58   5 2.59  29 2.59

  37  0.125  0.625  0.876-   4 2.57  28 2.57  68 2.57  92 2.57  85 2.58  77 2.58  21 2.59  13 2.59

  38  0.625  0.125  0.374-  14 2.57  22 2.57  78 2.57  86 2.57  71 2.58  95 2.58   7 2.59  31 2.59

  39  0.625  0.125  0.876-   6 2.57  30 2.57  70 2.57  94 2.57  87 2.58  79 2.58  23 2.59  15 2.59

  40  0.625  0.625  0.375-  16 2.57  24 2.57  80 2.57  88 2.57  73 2.58  97 2.58   9 2.58  33 2.58

  41  0.625  0.625  0.875-   8 2.57  32 2.57  72 2.57  96 2.57  89 2.58  81 2.58  25 2.58  17 2.58

  42  0.125  0.372  0.125-  10 2.57  26 2.57  74 2.58  90 2.58  84 2.59  68 2.59  20 2.61   4 2.61
                             1 2.94
  43  0.125  0.374  0.625-  11 2.57  27 2.57  75 2.57  91 2.57  85 2.58  69 2.58   5 2.59  21 2.59

  44  0.125  0.878  0.125-   2 2.57  18 2.57  66 2.58  82 2.58  76 2.59  92 2.59  12 2.61  28 2.61
                             1 2.94
  45  0.125  0.876  0.625-   3 2.57  19 2.57  67 2.57  83 2.57  77 2.58  93 2.58  29 2.59  13 2.59

  46  0.625  0.374  0.125-  14 2.57  30 2.57  78 2.57  94 2.57  88 2.58  72 2.58  24 2.59   8 2.59

  47  0.625  0.375  0.625-  15 2.57  31 2.57  79 2.57  95 2.57  89 2.58  73 2.58   9 2.58  25 2.58

  48  0.625  0.876  0.125-   6 2.57  22 2.57  70 2.57  86 2.57  80 2.58  96 2.58  16 2.59  32 2.59

  49  0.625  0.875  0.625-   7 2.57  23 2.57  71 2.57  87 2.57  81 2.58  97 2.58  33 2.58  17 2.58

  50  0.372  0.125  0.125-  18 2.57  26 2.57  74 2.58  66 2.58  86 2.59  94 2.59   6 2.61  14 2.61
                             1 2.94
  51  0.374  0.125  0.625-  19 2.57  27 2.57  67 2.57  75 2.57  87 2.58  95 2.58   7 2.59  15 2.59

  52  0.374  0.625  0.125-  20 2.57  28 2.57  68 2.57  76 2.57  88 2.58  96 2.58   8 2.59  16 2.59

  53  0.375  0.625  0.625-  21 2.57  29 2.57  69 2.57  77 2.57  89 2.58  97 2.58   9 2.58  17 2.58

  54  0.878  0.125  0.125-   2 2.57  10 2.57  82 2.58  90 2.58  78 2.59  70 2.59  22 2.61  30 2.61
                             1 2.94
  55  0.876  0.125  0.625-   3 2.57  11 2.57  83 2.57  91 2.57  71 2.58  79 2.58  31 2.59  23 2.59

  56  0.876  0.625  0.125-   4 2.57  12 2.57  84 2.57  92 2.57  72 2.58  80 2.58  24 2.59  32 2.59

  57  0.875  0.625  0.625-   5 2.57  13 2.57  85 2.57  93 2.57  73 2.58  81 2.58  25 2.58  33 2.58

  58  0.376  0.376  0.376-  74 2.53   9 2.55  69 2.57  88 2.57  95 2.57  20 2.59  27 2.59  14 2.59

  59  0.376  0.376  0.874-  89 2.56  26 2.56  21 2.57   8 2.57  15 2.57  68 2.59  75 2.59  94 2.59

  60  0.376  0.874  0.376-  97 2.56  18 2.56   7 2.57  16 2.57  29 2.57  76 2.59  86 2.59  67 2.59

  61  0.376  0.874  0.874-  66 2.53  17 2.55  77 2.57  87 2.57  96 2.57  19 2.59  28 2.59   6 2.59

  62  0.874  0.376  0.376-  73 2.56  10 2.56  31 2.57  24 2.57   5 2.57  84 2.59  78 2.59  91 2.59

  63  0.874  0.376  0.874-  90 2.53  25 2.55  79 2.57  85 2.57  72 2.57   4 2.59  30 2.59  11 2.59

  64  0.874  0.874  0.376-  82 2.53  33 2.55  80 2.57  71 2.57  93 2.57  22 2.59   3 2.59  12 2.59

  65  0.874  0.874  0.874-  81 2.56   2 2.56  23 2.57  32 2.57  13 2.57  92 2.59  83 2.59  70 2.59

  66  0.254  0.996  0.996-  61 2.53  35 2.58  50 2.58  44 2.58   1 2.66  19 2.95  28 2.95   6 2.95
                            26 3.05  18 3.05   2 3.05
  67  0.250  0.000  0.500-  45 2.57  51 2.57  60 2.59  34 2.59  18 2.95  19 2.97   3 2.98  27 2.98
                             7 2.98  29 2.98
  68  0.250  0.500  0.000-  37 2.57  52 2.57  59 2.59  42 2.59  26 2.95  28 2.97   4 2.98  20 2.98
                            21 2.98   8 2.98
  69  0.250  0.500  0.500-  53 2.57  58 2.57  36 2.58  43 2.58  21 2.97  29 2.97  27 2.98  20 2.98
                             5 2.98   9 2.98
  70  0.750  0.000  0.000-  39 2.57  48 2.57  65 2.59  54 2.59   2 2.95   6 2.97  22 2.98  30 2.98
                            23 2.98  32 2.98
  71  0.750  0.000  0.500-  49 2.57  64 2.57  55 2.58  38 2.58   7 2.97  23 2.97  22 2.98   3 2.98
                            31 2.98  33 2.98
  72  0.750  0.500  0.000-  41 2.57  63 2.57  56 2.58  46 2.58   8 2.97  32 2.97  30 2.98   4 2.98
                            24 2.98  25 2.98
  73  0.750  0.500  0.500-  62 2.56  57 2.58  40 2.58  47 2.58  25 2.97  33 2.97   9 2.97  31 2.98
                            24 2.98   5 2.98
  74  0.254  0.254  0.254-  58 2.53  50 2.58  34 2.58  42 2.58   1 2.66  20 2.95  27 2.95  14 2.95
                            26 3.05  18 3.05  10 3.05
  75  0.250  0.250  0.750-  43 2.57  51 2.57  59 2.59  35 2.59  26 2.95  27 2.97  11 2.98  19 2.98
                            15 2.98  21 2.98
  76  0.250  0.750  0.250-  36 2.57  52 2.57  60 2.59  44 2.59  18 2.95  20 2.97  12 2.98  28 2.98
                            29 2.98  16 2.98
  77  0.250  0.750  0.750-  53 2.57  61 2.57  37 2.58  45 2.58  21 2.97  29 2.97  28 2.98  19 2.98
                            13 2.98  17 2.98
  78  0.750  0.250  0.250-  38 2.57  46 2.57  62 2.59  54 2.59  10 2.95  14 2.97  22 2.98  30 2.98
                            31 2.98  24 2.98
  79  0.750  0.250  0.750-  47 2.57  63 2.57  55 2.58  39 2.58  15 2.97  31 2.97  30 2.98  11 2.98
                            23 2.98  25 2.98
  80  0.750  0.750  0.250-  40 2.57  64 2.57  56 2.58  48 2.58  16 2.97  24 2.97  22 2.98  12 2.98
                            32 2.98  33 2.98
  81  0.750  0.750  0.750-  65 2.56  57 2.58  49 2.58  41 2.58  25 2.97  33 2.97  17 2.97  32 2.98
                            23 2.98  13 2.98
  82  0.996  0.996  0.254-  64 2.53  54 2.58  34 2.58  44 2.58   1 2.66  12 2.95  22 2.95   3 2.95
                             2 3.05  18 3.05  10 3.05
  83  0.000  0.000  0.750-  45 2.57  55 2.57  65 2.59  35 2.59   2 2.95   3 2.97  11 2.98  19 2.98
                            23 2.98  13 2.98
  84  0.000  0.500  0.250-  36 2.57  56 2.57  62 2.59  42 2.59  10 2.95  12 2.97   4 2.98  20 2.98
                             5 2.98  24 2.98
  85  0.000  0.500  0.750-  57 2.57  63 2.57  37 2.58  43 2.58   5 2.97  13 2.97  11 2.98   4 2.98
                            21 2.98  25 2.98
  86  0.500  0.000  0.250-  38 2.57  48 2.57  60 2.59  50 2.59  18 2.95  22 2.97   6 2.98  14 2.98
                             7 2.98  16 2.98
  87  0.500  0.000  0.750-  49 2.57  61 2.57  51 2.58  39 2.58   7 2.97  23 2.97  19 2.98   6 2.98
                            15 2.98  17 2.98
  88  0.500  0.500  0.250-  40 2.57  58 2.57  52 2.58  46 2.58  16 2.97  24 2.97  20 2.98  14 2.98
                             8 2.98   9 2.98
  89  0.500  0.500  0.750-  59 2.56  53 2.58  47 2.58  41 2.58  17 2.97  25 2.97   9 2.97  21 2.98
                            15 2.98   8 2.98
  90  0.996  0.254  0.996-  63 2.53  35 2.58  54 2.58  42 2.58   1 2.66  11 2.95  30 2.95   4 2.95
                            26 3.05  10 3.05   2 3.05
  91  0.000  0.250  0.500-  43 2.57  55 2.57  62 2.59  34 2.59  10 2.95  11 2.97   3 2.98  27 2.98
                            31 2.98   5 2.98
  92  0.000  0.750  0.000-  37 2.57  56 2.57  65 2.59  44 2.59   2 2.95   4 2.97  12 2.98  28 2.98
                            13 2.98  32 2.98
  93  0.000  0.750  0.500-  57 2.57  64 2.57  36 2.58  45 2.58   5 2.97  13 2.97  12 2.98   3 2.98
                            29 2.98  33 2.98
  94  0.500  0.250  0.000-  39 2.57  46 2.57  59 2.59  50 2.59  26 2.95  30 2.97   6 2.98  14 2.98
                            15 2.98   8 2.98
  95  0.500  0.250  0.500-  47 2.57  58 2.57  51 2.58  38 2.58  15 2.97  31 2.97  27 2.98  14 2.98
                             7 2.98   9 2.98
  96  0.500  0.750  0.000-  41 2.57  61 2.57  52 2.58  48 2.58   8 2.97  32 2.97  28 2.98   6 2.98
                            16 2.98  17 2.98
  97  0.500  0.750  0.500-  60 2.56  53 2.58  40 2.58  49 2.58  17 2.97  33 2.97   9 2.97  29 2.98
                            16 2.98   7 2.98
 

IMPORTANT INFORMATION: All symmetrisations will be switched off!
NOSYMM: (Re-)initialisation of all symmetry stuff for point group C_1.


----------------------------------------------------------------------------------------

                                     Primitive cell                                     

  volume of cell :    1689.3517

  direct lattice vectors                    reciprocal lattice vectors
    11.909860967  0.000000000  0.000000000     0.083964036 -0.000000000 -0.000000000
     0.000000000 11.909860967  0.000000000     0.000000000  0.083964036 -0.000000000
     0.000000000  0.000000000 11.909860967     0.000000000  0.000000000  0.083964036

  length of vectors
    11.909860967 11.909860967 11.909860967     0.083964036  0.083964036  0.083964036

  position of ions in fractional coordinates (direct lattice)
     0.125000000  0.125000000  0.125000000
     0.997825747  0.997825747  0.997825747
     0.999640608  0.999640608  0.500988946
     0.999640608  0.500988946  0.999640608
     0.999666611  0.500041524  0.500041524
     0.500988946  0.999640608  0.999640608
     0.500041524  0.999666611  0.500041524
     0.500041524  0.500041524  0.999666611
     0.500254330  0.500254330  0.500254330
     0.997825747  0.252174253  0.252174253
     0.999640608  0.250359392  0.749011054
     0.999640608  0.749011054  0.250359392
     0.999666611  0.749958476  0.749958476
     0.500988946  0.250359392  0.250359392
     0.500041524  0.250333389  0.749958476
     0.500041524  0.749958476  0.250333389
     0.500254330  0.749745670  0.749745670
     0.252174253  0.997825747  0.252174253
     0.250359392  0.999640608  0.749011054
     0.250359392  0.500988946  0.250359392
     0.250333389  0.500041524  0.749958476
     0.749011054  0.999640608  0.250359392
     0.749958476  0.999666611  0.749958476
     0.749958476  0.500041524  0.250333389
     0.749745670  0.500254330  0.749745670
     0.252174253  0.252174253  0.997825747
     0.250359392  0.250359392  0.500988946
     0.250359392  0.749011054  0.999640608
     0.250333389  0.749958476  0.500041524
     0.749011054  0.250359392  0.999640608
     0.749958476  0.250333389  0.500041524
     0.749958476  0.749958476  0.999666611
     0.749745670  0.749745670  0.500254330
     0.125000000  0.125000000  0.371872513
     0.125000000  0.125000000  0.878127487
     0.125000000  0.625000000  0.374149435
     0.125000000  0.625000000  0.875850565
     0.625000000  0.125000000  0.374149435
     0.625000000  0.125000000  0.875850565
     0.625000000  0.625000000  0.374581427
     0.625000000  0.625000000  0.875418573
     0.125000000  0.371872513  0.125000000
     0.125000000  0.374149435  0.625000000
     0.125000000  0.878127487  0.125000000
     0.125000000  0.875850565  0.625000000
     0.625000000  0.374149435  0.125000000
     0.625000000  0.374581427  0.625000000
     0.625000000  0.875850565  0.125000000
     0.625000000  0.875418573  0.625000000
     0.371872513  0.125000000  0.125000000
     0.374149435  0.125000000  0.625000000
     0.374149435  0.625000000  0.125000000
     0.374581427  0.625000000  0.625000000
     0.878127487  0.125000000  0.125000000
     0.875850565  0.125000000  0.625000000
     0.875850565  0.625000000  0.125000000
     0.875418573  0.625000000  0.625000000
     0.376434209  0.376434209  0.376434209
     0.376393253  0.376393253  0.873606747
     0.376393253  0.873606747  0.376393253
     0.376434209  0.873565791  0.873565791
     0.873606747  0.376393253  0.376393253
     0.873565791  0.376434209  0.873565791
     0.873565791  0.873565791  0.376434209
     0.873606747  0.873606747  0.873606747
     0.253756195  0.996243805  0.996243805
     0.249725402  0.000274598  0.499750012
     0.249725402  0.499750012  0.000274598
     0.249736955  0.500263316  0.500263316
     0.750249988  0.000274598  0.000274598
     0.749736684  0.000263045  0.500263316
     0.749736684  0.500263316  0.000263045
     0.749656615  0.500343385  0.500343385
     0.253756195  0.253756195  0.253756195
     0.249725402  0.249725402  0.750249988
     0.249725402  0.750249988  0.249725402
     0.249736955  0.749736684  0.749736684
     0.750249988  0.249725402  0.249725402
     0.749736684  0.249736955  0.749736684
     0.749736684  0.749736684  0.249736955
     0.749656615  0.749656615  0.749656615
     0.996243805  0.996243805  0.253756195
     0.000274598  0.000274598  0.750249988
     0.000274598  0.499750012  0.249725402
     0.000263045  0.500263316  0.749736684
     0.499750012  0.000274598  0.249725402
     0.500263316  0.000263045  0.749736684
     0.500263316  0.500263316  0.249736955
     0.500343385  0.500343385  0.749656615
     0.996243805  0.253756195  0.996243805
     0.000274598  0.249725402  0.499750012
     0.000274598  0.750249988  0.000274598
     0.000263045  0.749736684  0.500263316
     0.499750012  0.249725402  0.000274598
     0.500263316  0.249736955  0.500263316
     0.500263316  0.749736684  0.000263045
     0.500343385  0.749656615  0.500343385

  ion indices of the primitive-cell ions
   primitive index   ion index
                 1           1
                 2           2
                 3           3
                 4           4
                 5           5
                 6           6
                 7           7
                 8           8
                 9           9
                10          10
                11          11
                12          12
                13          13
                14          14
                15          15
                16          16
                17          17
                18          18
                19          19
                20          20
                21          21
                22          22
                23          23
                24          24
                25          25
                26          26
                27          27
                28          28
                29          29
                30          30
                31          31
                32          32
                33          33
                34          34
                35          35
                36          36
                37          37
                38          38
                39          39
                40          40
                41          41
                42          42
                43          43
                44          44
                45          45
                46          46
                47          47
                48          48
                49          49
                50          50
                51          51
                52          52
                53          53
                54          54
                55          55
                56          56
                57          57
                58          58
                59          59
                60          60
                61          61
                62          62
                63          63
                64          64
                65          65
                66          66
                67          67
                68          68
                69          69
                70          70
                71          71
                72          72
                73          73
                74          74
                75          75
                76          76
                77          77
                78          78
                79          79
                80          80
                81          81
                82          82
                83          83
                84          84
                85          85
                86          86
                87          87
                88          88
                89          89
                90          90
                91          91
                92          92
                93          93
                94          94
                95          95
                96          96
                97          97

----------------------------------------------------------------------------------------

 
 
 KPOINTS: K-Spacing Value to Generate K-Mesh: 0.02

Automatic generation of k-mesh.
 Grid dimensions read from file:
 generate k-points for:    4    4    4

 Generating k-lattice:

  Cartesian coordinates                     Fractional coordinates (reciprocal lattice)
     0.020991009 -0.000000000 -0.000000000     0.250000000 -0.000000000  0.000000000
     0.000000000  0.020991009 -0.000000000     0.000000000  0.250000000  0.000000000
     0.000000000  0.000000000  0.020991009     0.000000000  0.000000000  0.250000000

  Length of vectors
     0.020991009  0.020991009  0.020991009

  Shift w.r.t. Gamma in fractional coordinates (k-lattice)
     0.500000000  0.500000000  0.500000000

 
 Subroutine IBZKPT returns following result:
 ===========================================
 
 Found     32 irreducible k-points:
 
 Following reciprocal coordinates:
            Coordinates               Weight
  0.125000  0.125000  0.125000      2.000000
 -0.125000  0.125000  0.125000      2.000000
 -0.125000 -0.125000  0.125000      2.000000
  0.125000 -0.125000  0.125000      2.000000
  0.375000  0.125000  0.125000      2.000000
  0.125000  0.375000  0.125000      2.000000
  0.125000  0.125000  0.375000      2.000000
 -0.125000  0.375000  0.125000      2.000000
 -0.375000  0.125000  0.125000      2.000000
 -0.125000  0.125000  0.375000      2.000000
 -0.375000 -0.125000  0.125000      2.000000
 -0.125000 -0.375000  0.125000      2.000000
 -0.125000 -0.125000  0.375000      2.000000
  0.125000 -0.375000  0.125000      2.000000
  0.375000 -0.125000  0.125000      2.000000
  0.125000 -0.125000  0.375000      2.000000
  0.375000  0.375000  0.125000      2.000000
  0.125000  0.375000  0.375000      2.000000
  0.375000  0.125000  0.375000      2.000000
 -0.375000  0.375000  0.125000      2.000000
 -0.375000  0.125000  0.375000      2.000000
 -0.125000  0.375000  0.375000      2.000000
 -0.375000 -0.375000  0.125000      2.000000
 -0.125000 -0.375000  0.375000      2.000000
 -0.375000 -0.125000  0.375000      2.000000
  0.375000 -0.375000  0.125000      2.000000
  0.375000 -0.125000  0.375000      2.000000
  0.125000 -0.375000  0.375000      2.000000
  0.375000  0.375000  0.375000      2.000000
 -0.375000  0.375000  0.375000      2.000000
 -0.375000 -0.375000  0.375000      2.000000
  0.375000 -0.375000  0.375000      2.000000
 
 Following cartesian coordinates:
            Coordinates               Weight
  0.010496  0.010496  0.010496      2.000000
 -0.010496  0.010496  0.010496      2.000000
 -0.010496 -0.010496  0.010496      2.000000
  0.010496 -0.010496  0.010496      2.000000
  0.031487  0.010496  0.010496      2.000000
  0.010496  0.031487  0.010496      2.000000
  0.010496  0.010496  0.031487      2.000000
 -0.010496  0.031487  0.010496      2.000000
 -0.031487  0.010496  0.010496      2.000000
 -0.010496  0.010496  0.031487      2.000000
 -0.031487 -0.010496  0.010496      2.000000
 -0.010496 -0.031487  0.010496      2.000000
 -0.010496 -0.010496  0.031487      2.000000
  0.010496 -0.031487  0.010496      2.000000
  0.031487 -0.010496  0.010496      2.000000
  0.010496 -0.010496  0.031487      2.000000
  0.031487  0.031487  0.010496      2.000000
  0.010496  0.031487  0.031487      2.000000
  0.031487  0.010496  0.031487      2.000000
 -0.031487  0.031487  0.010496      2.000000
 -0.031487  0.010496  0.031487      2.000000
 -0.010496  0.031487  0.031487      2.000000
 -0.031487 -0.031487  0.010496      2.000000
 -0.010496 -0.031487  0.031487      2.000000
 -0.031487 -0.010496  0.031487      2.000000
  0.031487 -0.031487  0.010496      2.000000
  0.031487 -0.010496  0.031487      2.000000
  0.010496 -0.031487  0.031487      2.000000
  0.031487  0.031487  0.031487      2.000000
 -0.031487  0.031487  0.031487      2.000000
 -0.031487 -0.031487  0.031487      2.000000
  0.031487 -0.031487  0.031487      2.000000
 


--------------------------------------------------------------------------------------------------------




 Dimension of arrays:
   k-points           NKPTS =     32   k-points in BZ     NKDIM =     32   number of bands    NBANDS=    512
   number of dos      NEDOS =    301   number of ions     NIONS =     97
   non local maximal  LDIM  =      6   non local SUM 2l+1 LMDIM =     18
   total plane-waves  NPLWV = 729000
   max r-space proj   IRMAX =      1   max aug-charges    IRDMAX=  24145
   dimension x,y,z NGX =    90 NGY =   90 NGZ =   90
   dimension x,y,z NGXF=   180 NGYF=  180 NGZF=  180
   support grid    NGXF=   180 NGYF=  180 NGZF=  180
   ions per type =               1  32  32  32
   NGX,Y,Z   is equivalent  to a cutoff of  12.56, 12.56, 12.56 a.u.
   NGXF,Y,Z  is equivalent  to a cutoff of  25.13, 25.13, 25.13 a.u.

 SYSTEM =  unknown system                          
 POSCAR =  Relexed NbFeSb 2x2x2 supercell with inte

 Startparameter for this run:
   NWRITE =      2    write-flag & timer
   PREC   = accura    normal or accurate (medium, high low for compatibility)
   ISTART =      0    job   : 0-new  1-cont  2-samecut
   ICHARG =      2    charge: 1-file 2-atom 10-const
   ISPIN  =      1    spin polarized calculation?
   LNONCOLLINEAR =      F non collinear calculations
   LSORBIT =      F    spin-orbit coupling
   INIWAV =      1    electr: 0-lowe 1-rand  2-diag
   LASPH  =      F    aspherical Exc in radial PAW
 Electronic Relaxation 1
   ENCUT  =  500.0 eV  36.75 Ry    6.06 a.u.  21.71 21.71 21.71*2*pi/ulx,y,z
   ENINI  =  500.0     initial cutoff
   ENAUG  =  569.1 eV  augmentation charge cutoff
   NELM   =     60;   NELMIN=  2; NELMDL= -5     # of ELM steps 
   EDIFF  = 0.1E-05   stopping-criterion for ELM
   LREAL  =      F    real-space projection
   NLSPLINE    = F    spline interpolate recip. space projectors
   LCOMPAT=      F    compatible to vasp.4.4
   GGA_COMPAT  = T    GGA compatible to vasp.4.4-vasp.4.6
   LMAXPAW     = -100 max onsite density
   LMAXMIX     =    2 max onsite mixed and CHGCAR
   VOSKOWN=      0    Vosko Wilk Nusair interpolation
   ROPT   =    0.00000   0.00000   0.00000   0.00000
 Ionic relaxation
   EDIFFG = 0.1E-04   stopping-criterion for IOM
   NSW    =      0    number of steps for IOM
   NBLOCK =      1;   KBLOCK =      1    inner block; outer block 
   IBRION =     -1    ionic relax: 0-MD 1-quasi-New 2-CG
   NFREE  =      0    steps in history (QN), initial steepest desc. (CG)
   ISIF   =      2    stress and relaxation
   IWAVPR =     10    prediction:  0-non 1-charg 2-wave 3-comb
   ISYM   =      0    0-nonsym 1-usesym 2-fastsym
   LCORR  =      T    Harris-Foulkes like correction to forces

   POTIM  = 0.5000    time-step for ionic-motion
   TEIN   =    0.0    initial temperature
   TEBEG  =    0.0;   TEEND  =   0.0 temperature during run
   SMASS  =  -3.00    Nose mass-parameter (am)
   estimated Nose-frequenzy (Omega)   =  0.10E-29 period in steps = 0.13E+47 mass=  -0.324E-26a.u.
   SCALEE = 1.0000    scale energy and forces
   NPACO  =    256;   APACO  = 10.0  distance and # of slots for P.C.
   PSTRESS=    0.0 pullay stress

  Mass of Ions in am
   POMASS =  54.94 92.91 55.85121.75
  Ionic Valenz
   ZVAL   =  13.00 13.00  8.00  5.00
  Atomic Wigner-Seitz radii
   RWIGS  =  -1.00 -1.00 -1.00 -1.00
  virtual crystal weights 
   VCA    =   1.00  1.00  1.00  1.00
   NELECT =     845.0000    total number of electrons
   NUPDOWN=      -1.0000    fix difference up-down

 DOS related values:
   EMIN   =  10.00;   EMAX   =-10.00  energy-range for DOS
   EFERMI =   0.00
   ISMEAR =     0;   SIGMA  =   0.05  broadening in eV -4-tet -1-fermi 0-gaus

 Electronic relaxation 2 (details)
   IALGO  =     38    algorithm
   LDIAG  =      T    sub-space diagonalisation (order eigenvalues)
   LSUBROT=      F    optimize rotation matrix (better conditioning)
   TURBO    =      0    0=normal 1=particle mesh
   IRESTART =      0    0=no restart 2=restart with 2 vectors
   NREBOOT  =      0    no. of reboots
   NMIN     =      0    reboot dimension
   EREF     =   0.00    reference energy to select bands
   IMIX   =      4    mixing-type and parameters
     AMIX     =   0.40;   BMIX     =  1.00
     AMIX_MAG =   1.60;   BMIX_MAG =  1.00
     AMIN     =   0.10
     WC   =   100.;   INIMIX=   1;  MIXPRE=   1;  MAXMIX= -45

 Intra band minimization:
   WEIMIN = 0.0000     energy-eigenvalue tresh-hold
   EBREAK =  0.49E-09  absolut break condition
   DEPER  =   0.30     relativ break condition  

   TIME   =   0.40     timestep for ELM

  volume/ion in A,a.u.               =      17.42       117.53
  Fermi-wavevector in a.u.,A,eV,Ry     =   1.299532  2.455760 22.977300  1.688784
  Thomas-Fermi vector in A             =   2.430790
 
 Write flags
   LWAVE        =      F    write WAVECAR
   LDOWNSAMPLE  =      F    k-point downsampling of WAVECAR
   LCHARG       =      F    write CHGCAR
   LVTOT        =      F    write LOCPOT, total local potential
   LVHAR        =      F    write LOCPOT, Hartree potential only
   LELF         =      F    write electronic localiz. function (ELF)
   LORBIT       =      0    0 simple, 1 ext, 2 COOP (PROOUT), +10 PAW based schemes


 Dipole corrections
   LMONO  =      F    monopole corrections only (constant potential shift)
   LDIPOL =      F    correct potential (dipole corrections)
   IDIPOL =      0    1-x, 2-y, 3-z, 4-all directions 
   EPSILON=  1.0000000 bulk dielectric constant

 Exchange correlation treatment:
   GGA     =    --    GGA type
   LEXCH   =     8    internal setting for exchange type
   LIBXC   =     F    Libxc                    
   VOSKOWN =     0    Vosko Wilk Nusair interpolation
   LHFCALC =     F    Hartree Fock is set to
   LHFONE  =     F    Hartree Fock one center treatment
   AEXX    =    0.0000 exact exchange contribution

 Linear response parameters
   LEPSILON=     F    determine dielectric tensor
   LRPA    =     F    only Hartree local field effects (RPA)
   LNABLA  =     F    use nabla operator in PAW spheres
   LVEL    =     F    velocity operator in full k-point grid
   CSHIFT  =0.1000    complex shift for real part using Kramers Kronig
   OMEGAMAX=  -1.0    maximum frequency
   DEG_THRESHOLD= 0.2000000E-02 threshold for treating states as degnerate
   RTIME   =   -0.100 relaxation time in fs
  (WPLASMAI=    0.000 imaginary part of plasma frequency in eV, 0.658/RTIME)
   DFIELD  = 0.0000000 0.0000000 0.0000000 field for delta impulse in time
 
  Optional k-point grid parameters
   LKPOINTS_OPT  =     F    use optional k-point grid
   KPOINTS_OPT_MODE=     1    mode for optional k-point grid
 
 Orbital magnetization related:
   ORBITALMAG=     F  switch on orbital magnetization
   LCHIMAG   =     F  perturbation theory with respect to B field
   DQ        =  0.001000  dq finite difference perturbation B field
   LLRAUG    =     F  two centre corrections for induced B field



--------------------------------------------------------------------------------------------------------


 Static calculation
 charge density and potential will be updated during run
 non-spin polarized calculation
 Variant of blocked Davidson
 Davidson routine will perform the subspace rotation
 perform sub-space diagonalisation
    after iterative eigenvector-optimisation
 modified Broyden-mixing scheme, WC =      100.0
 initial mixing is a Kerker type mixing with AMIX =  0.4000 and BMIX =      1.0000
 Hartree-type preconditioning will be used
 using additional bands           89
 reciprocal scheme for non local part
 use partial core corrections
 calculate Harris-corrections to forces 
   (improved forces if not selfconsistent)
 use gradient corrections 
 use of overlap-Matrix (Vanderbilt PP)
 Gauss-broadening in eV      SIGMA  =   0.05


--------------------------------------------------------------------------------------------------------


  energy-cutoff  :      500.00
  volume of cell :     1689.35
      direct lattice vectors                 reciprocal lattice vectors
    11.909860967  0.000000000  0.000000000     0.083964036 -0.000000000 -0.000000000
     0.000000000 11.909860967  0.000000000     0.000000000  0.083964036 -0.000000000
     0.000000000  0.000000000 11.909860967     0.000000000  0.000000000  0.083964036

  length of vectors
    11.909860967 11.909860967 11.909860967     0.083964036  0.083964036  0.083964036


 
 k-points in units of 2pi/SCALE and weight: K-Spacing Value to Generate K-Mesh: 0.02
   0.01049550  0.01049550  0.01049550       0.031
  -0.01049550  0.01049550  0.01049550       0.031
  -0.01049550 -0.01049550  0.01049550       0.031
   0.01049550 -0.01049550  0.01049550       0.031
   0.03148651  0.01049550  0.01049550       0.031
   0.01049550  0.03148651  0.01049550       0.031
   0.01049550  0.01049550  0.03148651       0.031
  -0.01049550  0.03148651  0.01049550       0.031
  -0.03148651  0.01049550  0.01049550       0.031
  -0.01049550  0.01049550  0.03148651       0.031
  -0.03148651 -0.01049550  0.01049550       0.031
  -0.01049550 -0.03148651  0.01049550       0.031
  -0.01049550 -0.01049550  0.03148651       0.031
   0.01049550 -0.03148651  0.01049550       0.031
   0.03148651 -0.01049550  0.01049550       0.031
   0.01049550 -0.01049550  0.03148651       0.031
   0.03148651  0.03148651  0.01049550       0.031
   0.01049550  0.03148651  0.03148651       0.031
   0.03148651  0.01049550  0.03148651       0.031
  -0.03148651  0.03148651  0.01049550       0.031
  -0.03148651  0.01049550  0.03148651       0.031
  -0.01049550  0.03148651  0.03148651       0.031
  -0.03148651 -0.03148651  0.01049550       0.031
  -0.01049550 -0.03148651  0.03148651       0.031
  -0.03148651 -0.01049550  0.03148651       0.031
   0.03148651 -0.03148651  0.01049550       0.031
   0.03148651 -0.01049550  0.03148651       0.031
   0.01049550 -0.03148651  0.03148651       0.031
   0.03148651  0.03148651  0.03148651       0.031
  -0.03148651  0.03148651  0.03148651       0.031
  -0.03148651 -0.03148651  0.03148651       0.031
   0.03148651 -0.03148651  0.03148651       0.031
 
 k-points in reciprocal lattice and weights: K-Spacing Value to Generate K-Mesh: 0.02
   0.12500000  0.12500000  0.12500000       0.031
  -0.12500000  0.12500000  0.12500000       0.031
  -0.12500000 -0.12500000  0.12500000       0.031
   0.12500000 -0.12500000  0.12500000       0.031
   0.37500000  0.12500000  0.12500000       0.031
   0.12500000  0.37500000  0.12500000       0.031
   0.12500000  0.12500000  0.37500000       0.031
  -0.12500000  0.37500000  0.12500000       0.031
  -0.37500000  0.12500000  0.12500000       0.031
  -0.12500000  0.12500000  0.37500000       0.031
  -0.37500000 -0.12500000  0.12500000       0.031
  -0.12500000 -0.37500000  0.12500000       0.031
  -0.12500000 -0.12500000  0.37500000       0.031
   0.12500000 -0.37500000  0.12500000       0.031
   0.37500000 -0.12500000  0.12500000       0.031
   0.12500000 -0.12500000  0.37500000       0.031
   0.37500000  0.37500000  0.12500000       0.031
   0.12500000  0.37500000  0.37500000       0.031
   0.37500000  0.12500000  0.37500000       0.031
  -0.37500000  0.37500000  0.12500000       0.031
  -0.37500000  0.12500000  0.37500000       0.031
  -0.12500000  0.37500000  0.37500000       0.031
  -0.37500000 -0.37500000  0.12500000       0.031
  -0.12500000 -0.37500000  0.37500000       0.031
  -0.37500000 -0.12500000  0.37500000       0.031
   0.37500000 -0.37500000  0.12500000       0.031
   0.37500000 -0.12500000  0.37500000       0.031
   0.12500000 -0.37500000  0.37500000       0.031
   0.37500000  0.37500000  0.37500000       0.031
  -0.37500000  0.37500000  0.37500000       0.031
  -0.37500000 -0.37500000  0.37500000       0.031
   0.37500000 -0.37500000  0.37500000       0.031
 
 position of ions in fractional coordinates (direct lattice) 
   0.12500000  0.12500000  0.12500000
   0.99782575  0.99782575  0.99782575
   0.99964061  0.99964061  0.50098895
   0.99964061  0.50098895  0.99964061
   0.99966661  0.50004152  0.50004152
   0.50098895  0.99964061  0.99964061
   0.50004152  0.99966661  0.50004152
   0.50004152  0.50004152  0.99966661
   0.50025433  0.50025433  0.50025433
   0.99782575  0.25217425  0.25217425
   0.99964061  0.25035939  0.74901105
   0.99964061  0.74901105  0.25035939
   0.99966661  0.74995848  0.74995848
   0.50098895  0.25035939  0.25035939
   0.50004152  0.25033339  0.74995848
   0.50004152  0.74995848  0.25033339
   0.50025433  0.74974567  0.74974567
   0.25217425  0.99782575  0.25217425
   0.25035939  0.99964061  0.74901105
   0.25035939  0.50098895  0.25035939
   0.25033339  0.50004152  0.74995848
   0.74901105  0.99964061  0.25035939
   0.74995848  0.99966661  0.74995848
   0.74995848  0.50004152  0.25033339
   0.74974567  0.50025433  0.74974567
   0.25217425  0.25217425  0.99782575
   0.25035939  0.25035939  0.50098895
   0.25035939  0.74901105  0.99964061
   0.25033339  0.74995848  0.50004152
   0.74901105  0.25035939  0.99964061
   0.74995848  0.25033339  0.50004152
   0.74995848  0.74995848  0.99966661
   0.74974567  0.74974567  0.50025433
   0.12500000  0.12500000  0.37187251
   0.12500000  0.12500000  0.87812749
   0.12500000  0.62500000  0.37414944
   0.12500000  0.62500000  0.87585056
   0.62500000  0.12500000  0.37414944
   0.62500000  0.12500000  0.87585056
   0.62500000  0.62500000  0.37458143
   0.62500000  0.62500000  0.87541857
   0.12500000  0.37187251  0.12500000
   0.12500000  0.37414944  0.62500000
   0.12500000  0.87812749  0.12500000
   0.12500000  0.87585056  0.62500000
   0.62500000  0.37414944  0.12500000
   0.62500000  0.37458143  0.62500000
   0.62500000  0.87585056  0.12500000
   0.62500000  0.87541857  0.62500000
   0.37187251  0.12500000  0.12500000
   0.37414944  0.12500000  0.62500000
   0.37414944  0.62500000  0.12500000
   0.37458143  0.62500000  0.62500000
   0.87812749  0.12500000  0.12500000
   0.87585056  0.12500000  0.62500000
   0.87585056  0.62500000  0.12500000
   0.87541857  0.62500000  0.62500000
   0.37643421  0.37643421  0.37643421
   0.37639325  0.37639325  0.87360675
   0.37639325  0.87360675  0.37639325
   0.37643421  0.87356579  0.87356579
   0.87360675  0.37639325  0.37639325
   0.87356579  0.37643421  0.87356579
   0.87356579  0.87356579  0.37643421
   0.87360675  0.87360675  0.87360675
   0.25375619  0.99624381  0.99624381
   0.24972540  0.00027460  0.49975001
   0.24972540  0.49975001  0.00027460
   0.24973696  0.50026332  0.50026332
   0.75024999  0.00027460  0.00027460
   0.74973668  0.00026304  0.50026332
   0.74973668  0.50026332  0.00026304
   0.74965662  0.50034338  0.50034338
   0.25375619  0.25375619  0.25375619
   0.24972540  0.24972540  0.75024999
   0.24972540  0.75024999  0.24972540
   0.24973696  0.74973668  0.74973668
   0.75024999  0.24972540  0.24972540
   0.74973668  0.24973696  0.74973668
   0.74973668  0.74973668  0.24973696
   0.74965662  0.74965662  0.74965662
   0.99624381  0.99624381  0.25375619
   0.00027460  0.00027460  0.75024999
   0.00027460  0.49975001  0.24972540
   0.00026304  0.50026332  0.74973668
   0.49975001  0.00027460  0.24972540
   0.50026332  0.00026304  0.74973668
   0.50026332  0.50026332  0.24973696
   0.50034338  0.50034338  0.74965662
   0.99624381  0.25375619  0.99624381
   0.00027460  0.24972540  0.49975001
   0.00027460  0.75024999  0.00027460
   0.00026304  0.74973668  0.50026332
   0.49975001  0.24972540  0.00027460
   0.50026332  0.24973696  0.50026332
   0.50026332  0.74973668  0.00026304
   0.50034338  0.74965662  0.50034338
 
 position of ions in cartesian coordinates  (Angst):
   1.48873262  1.48873262  1.48873262
  11.88396592 11.88396592 11.88396592
  11.90558066 11.90558066  5.96670869
  11.90558066  5.96670869 11.90558066
  11.90589035  5.95542503  5.95542503
   5.96670869 11.90558066 11.90558066
   5.95542503 11.90589035  5.95542503
   5.95542503  5.95542503 11.90589035
   5.95795952  5.95795952  5.95795952
  11.88396592  3.00336029  3.00336029
  11.90558066  2.98174555  8.92061752
  11.90558066  8.92061752  2.98174555
  11.90589035  8.93190118  8.93190118
   5.96670869  2.98174555  2.98174555
   5.95542503  2.98143586  8.93190118
   5.95542503  8.93190118  2.98143586
   5.95795952  8.92936669  8.92936669
   3.00336029 11.88396592  3.00336029
   2.98174555 11.90558066  8.92061752
   2.98174555  5.96670869  2.98174555
   2.98143586  5.95542503  8.93190118
   8.92061752 11.90558066  2.98174555
   8.93190118 11.90589035  8.93190118
   8.93190118  5.95542503  2.98143586
   8.92936669  5.95795952  8.92936669
   3.00336029  3.00336029 11.88396592
   2.98174555  2.98174555  5.96670869
   2.98174555  8.92061752 11.90558066
   2.98143586  8.93190118  5.95542503
   8.92061752  2.98174555 11.90558066
   8.93190118  2.98143586  5.95542503
   8.93190118  8.93190118 11.90589035
   8.92936669  8.92936669  5.95795952
   1.48873262  1.48873262  4.42894993
   1.48873262  1.48873262 10.45837628
   1.48873262  7.44366310  4.45606775
   1.48873262  7.44366310 10.43125846
   7.44366310  1.48873262  4.45606775
   7.44366310  1.48873262 10.43125846
   7.44366310  7.44366310  4.46121272
   7.44366310  7.44366310 10.42611349
   1.48873262  4.42894993  1.48873262
   1.48873262  4.45606775  7.44366310
   1.48873262 10.45837628  1.48873262
   1.48873262 10.43125846  7.44366310
   7.44366310  4.45606775  1.48873262
   7.44366310  4.46121272  7.44366310
   7.44366310 10.43125846  1.48873262
   7.44366310 10.42611349  7.44366310
   4.42894993  1.48873262  1.48873262
   4.45606775  1.48873262  7.44366310
   4.45606775  7.44366310  1.48873262
   4.46121272  7.44366310  7.44366310
  10.45837628  1.48873262  1.48873262
  10.43125846  1.48873262  7.44366310
  10.43125846  7.44366310  1.48873262
  10.42611349  7.44366310  7.44366310
   4.48327910  4.48327910  4.48327910
   4.48279131  4.48279131 10.40453490
   4.48279131 10.40453490  4.48279131
   4.48327910 10.40404711 10.40404711
  10.40453490  4.48279131  4.48279131
  10.40404711  4.48327910 10.40404711
  10.40404711 10.40404711  4.48327910
  10.40453490 10.40453490 10.40453490
   3.02220100 11.86512521 11.86512521
   2.97419481  0.00327043  5.95195316
   2.97419481  5.95195316  0.00327043
   2.97433241  5.95806654  5.95806654
   8.93537305  0.00327043  0.00327043
   8.92925967  0.00313283  5.95806654
   8.92925967  5.95806654  0.00313283
   8.92830606  5.95902015  5.95902015
   3.02220100  3.02220100  3.02220100
   2.97419481  2.97419481  8.93537305
   2.97419481  8.93537305  2.97419481
   2.97433241  8.92925967  8.92925967
   8.93537305  2.97419481  2.97419481
   8.92925967  2.97433241  8.92925967
   8.92925967  8.92925967  2.97433241
   8.92830606  8.92830606  8.92830606
  11.86512521 11.86512521  3.02220100
   0.00327043  0.00327043  8.93537305
   0.00327043  5.95195316  2.97419481
   0.00313283  5.95806654  8.92925967
   5.95195316  0.00327043  2.97419481
   5.95806654  0.00313283  8.92925967
   5.95806654  5.95806654  2.97433241
   5.95902015  5.95902015  8.92830606
  11.86512521  3.02220100 11.86512521
   0.00327043  2.97419481  5.95195316
   0.00327043  8.93537305  0.00327043
   0.00313283  8.92925967  5.95806654
   5.95195316  2.97419481  0.00327043
   5.95806654  2.97433241  5.95806654
   5.95806654  8.92925967  0.00313283
   5.95902015  8.92830606  5.95902015
 


--------------------------------------------------------------------------------------------------------


 k-point   1 :   0.1250 0.1250 0.1250  plane waves:   42892
 k-point   2 :  -0.1250 0.1250 0.1250  plane waves:   42892
 k-point   3 :  -0.1250-0.1250 0.1250  plane waves:   42892
 k-point   4 :   0.1250-0.1250 0.1250  plane waves:   42892
 k-point   5 :   0.3750 0.1250 0.1250  plane waves:   42879
 k-point   6 :   0.1250 0.3750 0.1250  plane waves:   42879
 k-point   7 :   0.1250 0.1250 0.3750  plane waves:   42879
 k-point   8 :  -0.1250 0.3750 0.1250  plane waves:   42879
 k-point   9 :  -0.3750 0.1250 0.1250  plane waves:   42879
 k-point  10 :  -0.1250 0.1250 0.3750  plane waves:   42879
 k-point  11 :  -0.3750-0.1250 0.1250  plane waves:   42879
 k-point  12 :  -0.1250-0.3750 0.1250  plane waves:   42879
 k-point  13 :  -0.1250-0.1250 0.3750  plane waves:   42879
 k-point  14 :   0.1250-0.3750 0.1250  plane waves:   42879
 k-point  15 :   0.3750-0.1250 0.1250  plane waves:   42879
 k-point  16 :   0.1250-0.1250 0.3750  plane waves:   42879
 k-point  17 :   0.3750 0.3750 0.1250  plane waves:   42888
 k-point  18 :   0.1250 0.3750 0.3750  plane waves:   42888
 k-point  19 :   0.3750 0.1250 0.3750  plane waves:   42888
 k-point  20 :  -0.3750 0.3750 0.1250  plane waves:   42888
 k-point  21 :  -0.3750 0.1250 0.3750  plane waves:   42888
 k-point  22 :  -0.1250 0.3750 0.3750  plane waves:   42888
 k-point  23 :  -0.3750-0.3750 0.1250  plane waves:   42888
 k-point  24 :  -0.1250-0.3750 0.3750  plane waves:   42888
 k-point  25 :  -0.3750-0.1250 0.3750  plane waves:   42888
 k-point  26 :   0.3750-0.3750 0.1250  plane waves:   42888
 k-point  27 :   0.3750-0.1250 0.3750  plane waves:   42888
 k-point  28 :   0.1250-0.3750 0.3750  plane waves:   42888
 k-point  29 :   0.3750 0.3750 0.3750  plane waves:   42868
 k-point  30 :  -0.3750 0.3750 0.3750  plane waves:   42868
 k-point  31 :  -0.3750-0.3750 0.3750  plane waves:   42868
 k-point  32 :   0.3750-0.3750 0.3750  plane waves:   42868

 maximum and minimum number of plane-waves per node :      5429     5312

 maximum number of plane-waves:     42892
 maximum index in each direction: 
   IXMAX=   22   IYMAX=   22   IZMAX=   21
   IXMIN=  -22   IYMIN=  -22   IZMIN=  -22


 parallel 3D FFT for wavefunctions:
    minimum data exchange during FFTs selected (reduces bandwidth)
 parallel 3D FFT for charge:
    minimum data exchange during FFTs selected (reduces bandwidth)


 total amount of memory used by VASP MPI-rank0   339258. kBytes
=======================================================================

   base      :      30000. kBytes
   nonl-proj :     107913. kBytes
   fftplans  :       6154. kBytes
   grid      :      10964. kBytes
   one-center:        202. kBytes
   wavefun   :     184025. kBytes
 
     INWAV:  cpu time      0.0000: real time      0.0002
 Broyden mixing: mesh for mixing (old mesh)
   NGX = 43   NGY = 43   NGZ = 43
  (NGX  =180   NGY  =180   NGZ  =180)
  gives a total of  79507 points

 initial charge density was supplied:
 charge density of overlapping atoms calculated
 number of electron     845.0000000 magnetization 
 keeping initial charge density in first step


--------------------------------------------------------------------------------------------------------


 Maximum index for augmentation-charges          983 (set IRDMAX)


--------------------------------------------------------------------------------------------------------


 First call to EWALD:  gamma=   0.149
 Maximum number of real-space cells 3x 3x 3
 Maximum number of reciprocal cells 3x 3x 3

    FEWALD:  cpu time      0.0030: real time      0.0030


--------------------------------------- Iteration      1(   1)  ---------------------------------------


    POTLOK:  cpu time      0.0934: real time      0.1028
    SETDIJ:  cpu time      0.0132: real time      0.0148
     EDDAV:  cpu time    142.4400: real time    144.8252
       DOS:  cpu time      0.0069: real time      0.0081
    --------------------------------------------
      LOOP:  cpu time    142.5535: real time    144.9509

 eigenvalue-minimisations  : 32768
 total energy-change (2. order) : 0.1163838E+05  (-0.3491005E+05)
 number of electron     845.0000000 magnetization 
 augmentation part      845.0000000 magnetization 

 Free energy of the ion-electron system (eV)
  ---------------------------------------------------
  alpha Z        PSCENC =      3073.63941239
  Ewald energy   TEWEN  =    -61282.00308446
  -Hartree energ DENC   =    -18115.95639065
  -exchange      EXHF   =         0.00000000
  -V(xc)+E(xc)   XCENC  =       562.75168819
  PAW double counting   =     64120.58336368   -62081.00385449
  entropy T*S    EENTRO =        -0.02818468
  eigenvalues    EBANDS =      9752.79561635
  atomic energy  EATOM  =     75607.59996922
  Solvation  Ediel_sol  =         0.00000000
  ---------------------------------------------------
  free energy    TOTEN  =     11638.37853555 eV

  energy without entropy =    11638.40672024  energy(sigma->0) =    11638.39262789


--------------------------------------------------------------------------------------------------------




--------------------------------------- Iteration      1(   2)  ---------------------------------------


     EDDAV:  cpu time    142.7702: real time    145.1452
       DOS:  cpu time      0.0064: real time      0.0064
    --------------------------------------------
      LOOP:  cpu time    142.7766: real time    145.1517

 eigenvalue-minimisations  : 32832
 total energy-change (2. order) :-0.1073147E+05  (-0.1044334E+05)
 number of electron     845.0000000 magnetization 
 augmentation part      845.0000000 magnetization 

 Free energy of the ion-electron system (eV)
  ---------------------------------------------------
  alpha Z        PSCENC =      3073.63941239
  Ewald energy   TEWEN  =    -61282.00308446
  -Hartree energ DENC   =    -18115.95639065
  -exchange      EXHF   =         0.00000000
  -V(xc)+E(xc)   XCENC  =       562.75168819
  PAW double counting   =     64120.58336368   -62081.00385449
  entropy T*S    EENTRO =        -0.03537590
  eigenvalues    EBANDS =      -978.66991918
  atomic energy  EATOM  =     75607.59996922
  Solvation  Ediel_sol  =         0.00000000
  ---------------------------------------------------
  free energy    TOTEN  =       906.90580880 eV

  energy without entropy =      906.94118470  energy(sigma->0) =      906.92349675


--------------------------------------------------------------------------------------------------------




--------------------------------------- Iteration      1(   3)  ---------------------------------------


     EDDAV:  cpu time    161.7933: real time    164.4318
       DOS:  cpu time      0.0062: real time      0.0063
    --------------------------------------------
      LOOP:  cpu time    161.7995: real time    164.4381

 eigenvalue-minimisations  : 38488
 total energy-change (2. order) :-0.1443988E+04  (-0.1356922E+04)
 number of electron     845.0000000 magnetization 
 augmentation part      845.0000000 magnetization 

 Free energy of the ion-electron system (eV)
  ---------------------------------------------------
  alpha Z        PSCENC =      3073.63941239
  Ewald energy   TEWEN  =    -61282.00308446
  -Hartree energ DENC   =    -18115.95639065
  -exchange      EXHF   =         0.00000000
  -V(xc)+E(xc)   XCENC  =       562.75168819
  PAW double counting   =     64120.58336368   -62081.00385449
  entropy T*S    EENTRO =        -0.03431964
  eigenvalues    EBANDS =     -2422.65940697
  atomic energy  EATOM  =     75607.59996922
  Solvation  Ediel_sol  =         0.00000000
  ---------------------------------------------------
  free energy    TOTEN  =      -537.08262272 eV

  energy without entropy =     -537.04830309  energy(sigma->0) =     -537.06546290


--------------------------------------------------------------------------------------------------------




--------------------------------------- Iteration      1(   4)  ---------------------------------------


     EDDAV:  cpu time    217.5214: real time    221.1935
       DOS:  cpu time      0.0078: real time      0.0079
    --------------------------------------------
      LOOP:  cpu time    217.5292: real time    221.2014

 eigenvalue-minimisations  : 55296
 total energy-change (2. order) :-0.2462963E+03  (-0.2405488E+03)
 number of electron     845.0000000 magnetization 
 augmentation part      845.0000000 magnetization 

 Free energy of the ion-electron system (eV)
  ---------------------------------------------------
  alpha Z        PSCENC =      3073.63941239
  Ewald energy   TEWEN  =    -61282.00308446
  -Hartree energ DENC   =    -18115.95639065
  -exchange      EXHF   =         0.00000000
  -V(xc)+E(xc)   XCENC  =       562.75168819
  PAW double counting   =     64120.58336368   -62081.00385449
  entropy T*S    EENTRO =        -0.02913093
  eigenvalues    EBANDS =     -2668.96088340
  atomic energy  EATOM  =     75607.59996922
  Solvation  Ediel_sol  =         0.00000000
  ---------------------------------------------------
  free energy    TOTEN  =      -783.37891045 eV

  energy without entropy =     -783.34977952  energy(sigma->0) =     -783.36434498


--------------------------------------------------------------------------------------------------------




--------------------------------------- Iteration      1(   5)  ---------------------------------------


     EDDAV:  cpu time    227.9526: real time    231.8935
       DOS:  cpu time      0.0058: real time      0.0059
    CHARGE:  cpu time      3.1396: real time      3.1944
    MIXING:  cpu time      0.0023: real time      0.0031
    --------------------------------------------
      LOOP:  cpu time    231.1003: real time    235.0969

 eigenvalue-minimisations  : 58472
 total energy-change (2. order) :-0.2292027E+02  (-0.2265956E+02)
 number of electron     844.9999830 magnetization 
 augmentation part      149.3911667 magnetization 

 Broyden mixing:
  rms(total) = 0.65067E+01    rms(broyden)= 0.65061E+01
  rms(prec ) = 0.71842E+01
  weight for this iteration     100.00

 Free energy of the ion-electron system (eV)
  ---------------------------------------------------
  alpha Z        PSCENC =      3073.63941239
  Ewald energy   TEWEN  =    -61282.00308446
  -Hartree energ DENC   =    -18115.95639065
  -exchange      EXHF   =         0.00000000
  -V(xc)+E(xc)   XCENC  =       562.75168819
  PAW double counting   =     64120.58336368   -62081.00385449
  entropy T*S    EENTRO =        -0.00921062
  eigenvalues    EBANDS =     -2691.90107157
  atomic energy  EATOM  =     75607.59996922
  Solvation  Ediel_sol  =         0.00000000
  ---------------------------------------------------
  free energy    TOTEN  =      -806.29917831 eV

  energy without entropy =     -806.28996769  energy(sigma->0) =     -806.29457300


--------------------------------------------------------------------------------------------------------




--------------------------------------- Iteration      1(   6)  ---------------------------------------


    POTLOK:  cpu time      0.0682: real time      0.0692
[...]
   0.109E+02 -.109E+02 0.109E+02   -.109E+02 0.109E+02 -.109E+02   -.207E-01 0.206E-01 -.207E-01   0.326E-02 0.517E-02 0.856E-03
   -.184E+03 -.184E+03 0.184E+03   0.183E+03 0.183E+03 -.183E+03   0.112E+01 0.112E+01 -.112E+01   -.631E-02 -.716E-03 0.154E-02
   -.207E+02 -.207E+02 -.449E+02   0.207E+02 0.207E+02 0.449E+02   -.643E-01 -.644E-01 -.910E-01   -.839E-02 0.470E-02 -.170E-02
   -.207E+02 0.449E+02 0.207E+02   0.207E+02 -.449E+02 -.207E+02   -.644E-01 0.911E-01 0.643E-01   0.211E-02 0.577E-03 0.633E-02
   -.398E+01 0.191E+02 -.191E+02   0.409E+01 -.191E+02 0.191E+02   -.997E-01 0.353E-01 -.353E-01   -.103E-01 -.330E-02 0.100E-02
   0.448E+02 -.207E+02 0.207E+02   -.449E+02 0.207E+02 -.207E+02   0.909E-01 -.643E-01 0.643E-01   0.103E-01 -.278E-02 0.126E-02
   0.191E+02 -.399E+01 -.191E+02   -.191E+02 0.409E+01 0.191E+02   0.351E-01 -.999E-01 -.353E-01   0.849E-02 0.327E-02 0.371E-03
   0.191E+02 0.191E+02 0.399E+01   -.191E+02 -.191E+02 -.409E+01   0.352E-01 0.354E-01 0.998E-01   0.789E-02 -.685E-02 -.481E-03
   0.109E+02 0.109E+02 -.109E+02   -.109E+02 -.109E+02 0.109E+02   -.207E-01 -.206E-01 0.207E-01   0.334E-02 -.611E-02 -.140E-02
   0.181E-02 -.144E-02 -.151E+03   0.409E-13 -.426E-13 0.152E+03   0.742E-04 -.900E-04 -.872E+00   -.185E-02 0.146E-02 -.248E-02
   0.773E-03 -.145E-03 0.151E+03   0.102E-13 -.142E-12 -.152E+03   0.470E-04 -.855E-05 0.872E+00   -.790E-03 0.154E-03 0.259E-02
   0.906E-03 0.113E-02 -.173E+02   0.249E-13 0.657E-13 0.174E+02   0.548E-04 0.890E-04 -.131E+00   -.939E-03 -.117E-02 -.113E-02
   0.555E-03 0.405E-03 0.173E+02   0.364E-13 -.142E-13 -.174E+02   0.148E-04 0.216E-04 0.131E+00   -.565E-03 -.408E-03 0.166E-02
   -.157E-02 -.947E-03 -.173E+02   -.817E-13 0.622E-13 0.174E+02   -.777E-04 -.584E-04 -.131E+00   0.160E-02 0.976E-03 -.318E-03
   -.667E-03 -.156E-03 0.173E+02   0.253E-13 0.728E-13 -.174E+02   -.307E-04 -.230E-04 0.131E+00   0.683E-03 0.150E-03 0.559E-03
   -.102E-02 0.123E-02 -.535E+01   -.284E-13 -.711E-14 0.541E+01   -.495E-04 0.648E-04 -.466E-01   0.105E-02 -.125E-02 0.136E-03
   -.425E-03 0.395E-04 0.535E+01   -.106E-12 0.133E-13 -.541E+01   -.167E-04 0.325E-04 0.466E-01   0.438E-03 -.441E-04 -.557E-03
   0.928E-03 -.151E+03 -.136E-02   0.129E-13 0.152E+03 -.475E-13   0.335E-04 -.872E+00 -.112E-03   -.935E-03 -.146E-02 0.139E-02
   0.268E-03 -.173E+02 0.150E-02   -.453E-13 0.174E+02 0.152E-12   0.153E-04 -.131E+00 0.117E-03   -.286E-03 -.533E-03 -.152E-02
   0.137E-02 0.151E+03 -.203E-03   0.240E-13 -.152E+03 -.684E-13   0.694E-04 0.872E+00 -.240E-04   -.140E-02 0.168E-02 0.212E-03
   0.148E-02 0.173E+02 0.625E-03   0.320E-13 -.174E+02 -.533E-14   0.689E-04 0.131E+00 0.530E-04   -.152E-02 0.264E-03 -.621E-03
   -.554E-03 -.173E+02 -.671E-03   0.131E-12 0.174E+02 0.675E-13   -.345E-04 -.131E+00 -.520E-04   0.561E-03 0.175E-02 0.680E-03
   -.564E-03 -.535E+01 0.670E-03   0.515E-13 0.541E+01 0.338E-13   -.183E-04 -.468E-01 0.583E-04   0.580E-03 0.276E-02 -.684E-03
   -.137E-02 0.173E+02 0.236E-03   -.373E-13 -.174E+02 0.183E-12   -.571E-04 0.131E+00 -.217E-04   0.140E-02 -.189E-02 -.255E-03
   -.118E-02 0.535E+01 -.393E-03   -.853E-13 -.541E+01 0.284E-13   -.668E-04 0.468E-01 0.170E-04   0.123E-02 -.246E-02 0.404E-03
   -.151E+03 -.992E-03 0.291E-03   0.152E+03 0.391E-13 -.577E-13   -.872E+00 -.503E-04 -.164E-04   -.497E-02 0.101E-02 -.298E-03
   -.173E+02 -.130E-02 -.120E-03   0.174E+02 0.675E-13 0.140E-12   -.131E+00 -.930E-04 0.302E-04   -.284E-02 0.132E-02 0.135E-03
   -.173E+02 0.686E-03 -.520E-03   0.174E+02 0.444E-13 -.178E-13   -.131E+00 0.572E-04 -.495E-04   -.148E-02 -.707E-03 0.525E-03
   -.535E+01 0.130E-02 0.665E-03   0.541E+01 -.213E-13 0.000E+00   -.466E-01 0.731E-04 0.585E-04   -.821E-04 -.134E-02 -.672E-03
   0.151E+03 -.316E-04 -.692E-03   -.152E+03 0.697E-13 -.115E-12   0.872E+00 -.193E-04 -.544E-04   0.509E-02 0.337E-04 0.697E-03
   0.173E+02 -.382E-03 0.850E-03   -.174E+02 -.586E-13 0.136E-12   0.131E+00 -.215E-04 0.654E-04   0.309E-02 0.393E-03 -.856E-03
   0.173E+02 0.442E-03 -.110E-02   -.174E+02 -.875E-13 0.302E-13   0.131E+00 0.320E-04 -.876E-04   0.175E-02 -.440E-03 0.112E-02
   0.535E+01 0.379E-03 0.102E-02   -.541E+01 0.693E-13 0.879E-13   0.466E-01 0.435E-04 0.873E-04   -.199E-03 -.385E-03 -.104E-02
   -.204E+02 -.204E+02 -.204E+02   0.207E+02 0.207E+02 0.207E+02   -.286E+00 -.286E+00 -.286E+00   -.215E-02 0.179E-02 -.245E-03
   -.226E+02 -.226E+02 0.226E+02   0.228E+02 0.228E+02 -.228E+02   -.262E+00 -.262E+00 0.262E+00   -.194E-02 0.647E-03 0.278E-03
   -.226E+02 0.226E+02 -.226E+02   0.228E+02 -.228E+02 0.228E+02   -.262E+00 0.262E+00 -.262E+00   -.237E-02 -.169E-02 -.510E-03
   -.204E+02 0.204E+02 0.204E+02   0.207E+02 -.207E+02 -.207E+02   -.286E+00 0.286E+00 0.286E+00   -.112E-02 -.112E-02 0.855E-03
   0.226E+02 -.226E+02 -.226E+02   -.228E+02 0.228E+02 0.228E+02   0.262E+00 -.262E+00 -.262E+00   0.272E-02 0.902E-03 -.502E-03
   0.204E+02 -.204E+02 0.204E+02   -.207E+02 0.207E+02 -.207E+02   0.286E+00 -.286E+00 0.286E+00   0.142E-02 0.101E-02 0.573E-03
   0.204E+02 0.204E+02 -.204E+02   -.207E+02 -.207E+02 0.207E+02   0.286E+00 0.286E+00 -.286E+00   0.201E-02 -.114E-02 -.691E-03
   0.226E+02 0.226E+02 0.226E+02   -.228E+02 -.228E+02 -.228E+02   0.262E+00 0.262E+00 0.262E+00   0.186E-02 -.367E-03 0.716E-03
   -.650E+02 0.650E+02 0.650E+02   0.658E+02 -.658E+02 -.658E+02   -.795E+00 0.795E+00 0.795E+00   -.306E-02 0.404E-03 0.113E-02
   -.771E+01 0.772E+01 -.192E+02   0.781E+01 -.781E+01 0.192E+02   -.103E+00 0.103E+00 -.105E-01   -.454E-02 0.135E-02 0.694E-03
   -.772E+01 -.192E+02 0.772E+01   0.781E+01 0.192E+02 -.781E+01   -.103E+00 -.105E-01 0.103E+00   0.102E-02 -.139E-04 0.225E-02
   -.218E+01 -.673E+01 -.673E+01   0.220E+01 0.678E+01 0.678E+01   -.299E-01 -.366E-01 -.367E-01   -.238E-02 -.189E-02 -.116E-02
   0.192E+02 0.772E+01 0.772E+01   -.192E+02 -.781E+01 -.781E+01   0.104E-01 0.103E+00 0.103E+00   0.404E-02 0.737E-03 0.494E-03
   0.673E+01 0.218E+01 -.673E+01   -.678E+01 -.220E+01 0.678E+01   0.366E-01 0.300E-01 -.367E-01   0.308E-02 -.850E-03 0.401E-03
   0.673E+01 -.673E+01 0.218E+01   -.678E+01 0.678E+01 -.220E+01   0.366E-01 -.367E-01 0.299E-01   0.300E-02 0.294E-02 0.158E-03
   0.438E+01 -.439E+01 -.438E+01   -.435E+01 0.435E+01 0.435E+01   -.501E-01 0.501E-01 0.501E-01   0.117E-02 0.203E-02 -.931E-03
   -.650E+02 -.650E+02 -.650E+02   0.658E+02 0.658E+02 0.658E+02   -.795E+00 -.795E+00 -.795E+00   -.328E-02 -.425E-03 -.503E-03
   -.772E+01 -.772E+01 0.192E+02   0.781E+01 0.781E+01 -.192E+02   -.103E+00 -.103E+00 0.105E-01   -.236E-02 0.157E-02 0.250E-03
   -.772E+01 0.192E+02 -.772E+01   0.781E+01 -.192E+02 0.781E+01   -.103E+00 0.106E-01 -.103E+00   -.240E-02 -.296E-02 -.314E-02
   -.218E+01 0.673E+01 0.673E+01   0.220E+01 -.678E+01 -.678E+01   -.299E-01 0.367E-01 0.367E-01   -.753E-03 0.202E-02 0.415E-03
   0.192E+02 -.772E+01 -.772E+01   -.192E+02 0.781E+01 0.781E+01   0.104E-01 -.103E+00 -.103E+00   0.469E-02 -.428E-03 -.882E-03
   0.673E+01 -.218E+01 0.673E+01   -.678E+01 0.220E+01 -.678E+01   0.367E-01 -.300E-01 0.367E-01   0.235E-02 0.395E-03 0.215E-03
   0.673E+01 0.673E+01 -.218E+01   -.678E+01 -.678E+01 0.220E+01   0.366E-01 0.368E-01 -.300E-01   0.288E-02 -.332E-02 0.652E-04
   0.438E+01 0.439E+01 0.438E+01   -.435E+01 -.435E+01 -.435E+01   -.501E-01 -.501E-01 -.501E-01   0.125E-02 -.149E-02 0.492E-03
   0.650E+02 0.650E+02 -.650E+02   -.658E+02 -.658E+02 0.658E+02   0.795E+00 0.795E+00 -.795E+00   0.183E-02 0.227E-02 -.250E-02
   0.772E+01 0.772E+01 0.192E+02   -.781E+01 -.781E+01 -.192E+02   0.103E+00 0.103E+00 0.105E-01   0.966E-03 -.229E-03 0.235E-03
   0.772E+01 -.192E+02 -.772E+01   -.781E+01 0.192E+02 0.781E+01   0.103E+00 -.105E-01 -.103E+00   -.235E-03 0.127E-02 -.114E-02
   0.218E+01 -.673E+01 0.673E+01   -.220E+01 0.678E+01 -.678E+01   0.299E-01 -.367E-01 0.367E-01   -.912E-04 -.127E-02 -.179E-02
   -.192E+02 0.772E+01 -.772E+01   0.192E+02 -.781E+01 0.781E+01   -.105E-01 0.103E+00 -.103E+00   -.923E-03 0.101E-02 -.190E-02
   -.673E+01 0.218E+01 0.673E+01   0.678E+01 -.220E+01 -.678E+01   -.367E-01 0.299E-01 0.367E-01   -.133E-02 -.133E-02 0.126E-02
   -.673E+01 -.673E+01 -.218E+01   0.678E+01 0.678E+01 0.220E+01   -.366E-01 -.367E-01 -.300E-01   -.247E-02 0.273E-02 0.839E-03
   -.438E+01 -.438E+01 0.438E+01   0.435E+01 0.435E+01 -.435E+01   0.501E-01 0.501E-01 -.501E-01   -.283E-04 0.341E-03 0.176E-02
   0.650E+02 -.650E+02 0.650E+02   -.658E+02 0.658E+02 -.658E+02   0.795E+00 -.795E+00 0.795E+00   0.143E-02 -.220E-02 0.264E-02
   0.772E+01 -.772E+01 -.192E+02   -.781E+01 0.781E+01 0.192E+02   0.103E+00 -.103E+00 -.105E-01   0.210E-02 0.499E-03 -.272E-03
   0.772E+01 0.192E+02 0.772E+01   -.781E+01 -.192E+02 -.781E+01   0.103E+00 0.105E-01 0.103E+00   -.121E-02 0.162E-03 0.287E-02
   0.218E+01 0.673E+01 -.673E+01   -.220E+01 -.678E+01 0.678E+01   0.299E-01 0.367E-01 -.367E-01   0.447E-03 -.494E-03 -.104E-03
   -.192E+02 -.772E+01 0.772E+01   0.192E+02 0.781E+01 -.781E+01   -.104E-01 -.103E+00 0.103E+00   -.261E-02 0.344E-03 -.880E-03
   -.673E+01 -.218E+01 -.673E+01   0.678E+01 0.220E+01 0.678E+01   -.366E-01 -.300E-01 -.367E-01   -.218E-02 0.219E-02 -.504E-03
   -.673E+01 0.673E+01 0.218E+01   0.678E+01 -.678E+01 -.220E+01   -.366E-01 0.368E-01 0.299E-01   -.250E-02 -.246E-02 -.463E-03
   -.439E+01 0.439E+01 -.438E+01   0.435E+01 -.435E+01 0.435E+01   0.500E-01 -.500E-01 0.501E-01   0.234E-02 -.289E-02 -.811E-04
 -----------------------------------------------------------------------------------------------
   0.462E-02 0.551E-03 -.155E-02   -.524E-13 -.129E-12 0.370E-12   0.195E-03 0.194E-04 -.318E-04   -.481E-02 -.527E-03 0.168E-02
 
 
 POSITION                                       TOTAL-FORCE (eV/Angst)
 -----------------------------------------------------------------------------------
      1.48873      1.48873      1.48873         0.000121     -0.000038      0.000009
     11.88397     11.88397     11.88397         0.002475      0.002398      0.002408
     11.90558     11.90558      5.96671         0.001517      0.001563     -0.007983
     11.90558      5.96671     11.90558         0.001690     -0.007983      0.001455
     11.90589      5.95543      5.95543         0.002385     -0.000722     -0.000794
      5.96671     11.90558     11.90558        -0.007854      0.001539      0.001609
      5.95543     11.90589      5.95543        -0.000771      0.002385     -0.000809
      5.95543      5.95543     11.90589        -0.000586     -0.000840      0.002477
      5.95796      5.95796      5.95796        -0.002099     -0.002083     -0.001957
     11.88397      3.00336      3.00336         0.002504     -0.002356     -0.002406
     11.90558      2.98175      8.92062         0.001517     -0.001576      0.007971
     11.90558      8.92062      2.98175         0.001597      0.007998     -0.001458
     11.90589      8.93190      8.93190         0.002489      0.000649      0.000805
      5.96671      2.98175      2.98175        -0.007815     -0.001516     -0.001576
      5.95543      2.98144      8.93190        -0.000674     -0.002453      0.000670
      5.95543      8.93190      2.98144        -0.000727      0.000938     -0.002379
      5.95796      8.92937      8.92937        -0.002077      0.002021      0.001968
      3.00336     11.88397      3.00336        -0.002400      0.002418     -0.002393
      2.98175     11.90558      8.92062        -0.001536      0.001638      0.007917
      2.98175      5.96671      2.98175        -0.001647     -0.008032     -0.001505
      2.98144      5.95543      8.93190        -0.002431     -0.000564      0.000756
      8.92062     11.90558      2.98175         0.007822      0.001498     -0.001501
      8.93190     11.90589      8.93190         0.000674      0.002429      0.000720
      8.93190      5.95543      2.98144         0.000640     -0.000890     -0.002455
      8.92937      5.95796      8.92937         0.002042     -0.002140      0.002028
      3.00336      3.00336     11.88397        -0.002508     -0.002453      0.002534
      2.98175      2.98175      5.96671        -0.001508     -0.001600     -0.007952
      2.98175      8.92062     11.90558        -0.001693      0.007916      0.001462
      2.98144      8.93190      5.95543        -0.002286      0.000743     -0.000788
      8.92062      2.98175     11.90558         0.007818     -0.001443      0.001564
      8.93190      2.98144      5.95543         0.000667     -0.002411     -0.000746
      8.93190      8.93190     11.90589         0.000609      0.000835      0.002443
      8.92937      8.92937      5.95796         0.002093      0.002125     -0.002053
      1.48873      1.48873      4.42895         0.000043     -0.000069      0.005115
      1.48873      1.48873     10.45838         0.000029      0.000001     -0.005148
      1.48873      7.44366      4.45607         0.000022      0.000055      0.010705
      1.48873      7.44366     10.43126         0.000005      0.000018     -0.010720
      7.44366      1.48873      4.45607        -0.000045     -0.000030      0.010690
      7.44366      1.48873     10.43126        -0.000015     -0.000029     -0.010672
      7.44366      7.44366      4.46121        -0.000020      0.000043      0.012342
      7.44366      7.44366     10.42611        -0.000004      0.000027     -0.012336
      1.48873      4.42895      1.48873         0.000027      0.005090     -0.000086
      1.48873      4.45607      7.44366        -0.000003      0.010666      0.000091
      1.48873     10.45838      1.48873         0.000040     -0.005094     -0.000016
      1.48873     10.43126      7.44366         0.000033     -0.010674      0.000056
      7.44366      4.45607      1.48873        -0.000028      0.010603     -0.000043
      7.44366      4.46121      7.44366        -0.000003      0.012275      0.000043
      7.44366     10.43126      1.48873        -0.000029     -0.010623     -0.000042
      7.44366     10.42611      7.44366        -0.000026     -0.012272      0.000027
      4.42895      1.48873      1.48873         0.005202     -0.000030     -0.000025
      4.45607      1.48873      7.44366         0.010766     -0.000071      0.000044
      4.45607      7.44366      1.48873         0.010727      0.000036     -0.000045
      4.46121      7.44366      7.44366         0.012351      0.000038      0.000050
     10.45838      1.48873      1.48873        -0.005223     -0.000018     -0.000050
     10.43126      1.48873      7.44366        -0.010748     -0.000010      0.000059
     10.43126      7.44366      1.48873        -0.010713      0.000033     -0.000064
     10.42611      7.44366      7.44366        -0.012359      0.000038      0.000063
      4.48328      4.48328      4.48328         0.000924      0.000782      0.000809
      4.48279      4.48279     10.40453         0.001135      0.001065     -0.001109
      4.48279     10.40453      4.48279         0.001127     -0.001018      0.001089
      4.48328     10.40405     10.40405         0.000891     -0.000781     -0.000848
     10.40453      4.48279      4.48279        -0.001161      0.001053      0.001118
     10.40405      4.48328     10.40405        -0.000877      0.000796     -0.000848
     10.40405     10.40405      4.48328        -0.000899     -0.000807      0.000840
     10.40453     10.40453     10.40453        -0.001150     -0.001088     -0.001128
      3.02220     11.86513     11.86513         0.018977     -0.018964     -0.018993
      2.97419      0.00327      5.95195        -0.009154      0.009223     -0.007953
      2.97419      5.95195      0.00327        -0.009331     -0.007937      0.009179
      2.97433      5.95807      5.95807        -0.008949      0.009269      0.009222
      8.93537      0.00327      0.00327         0.007853      0.009179      0.009226
      8.92926      0.00313      5.95807        -0.009227      0.008994      0.009184
      8.92926      5.95807      0.00313        -0.009294      0.009104      0.008998
      8.92831      5.95902      5.95902        -0.011518      0.011483      0.011561
      3.02220      3.02220      3.02220         0.018975      0.019002      0.018945
      2.97419      2.97419      8.93537        -0.009220     -0.009321      0.007949
      2.97419      8.93537      2.97419        -0.009233      0.008016     -0.009161
      2.97433      8.92926      8.92926        -0.009005     -0.009303     -0.009177
      8.93537      2.97419      2.97419         0.007822     -0.009191     -0.009233
      8.92926      2.97433      8.92926        -0.009221     -0.008984     -0.009192
      8.92926      8.92926      2.97433        -0.009244     -0.009097     -0.009015
      8.92831      8.92831      8.92831        -0.011534     -0.011495     -0.011536
     11.86513     11.86513      3.02220        -0.019003     -0.019065      0.019040
      0.00327      0.00327      8.93537         0.009233      0.009266      0.007963
      0.00327      5.95195      2.97419         0.009289     -0.007983     -0.009190
      0.00313      5.95807      8.92926         0.009005      0.009252     -0.009123
      5.95195      0.00327      2.97419        -0.007916      0.009181     -0.009210
      5.95807      0.00313      8.92926         0.009221      0.009035     -0.009211
      5.95807      5.95807      2.97433         0.009280      0.009104     -0.009059
      5.95902      5.95902      8.92831         0.011519      0.011548     -0.011595
     11.86513      3.02220     11.86513        -0.018972      0.019047     -0.019052
      0.00327      2.97419      5.95195         0.009195     -0.009247     -0.007940
      0.00327      8.93537      0.00327         0.009312      0.007944      0.009146
      0.00313      8.92926      5.95807         0.008956     -0.009207      0.009171
      5.95195      2.97419      0.00327        -0.007868     -0.009214      0.009279
      5.95807      2.97433      5.95807         0.009249     -0.009030      0.009226
      5.95807      8.92926      0.00313         0.009299     -0.009134      0.009015
      5.95902      8.92831      5.95902         0.011437     -0.011475      0.011539
 -----------------------------------------------------------------------------------
    total drift:                                0.000012      0.000043      0.000093


--------------------------------------------------------------------------------------------------------



  FREE ENERGIE OF THE ION-ELECTRON SYSTEM (eV)
  ---------------------------------------------------
  free  energy   TOTEN  =      -764.27500559 eV

  energy  without entropy=     -764.26535421  energy(sigma->0) =     -764.27017990
 


--------------------------------------------------------------------------------------------------------


    POTLOK:  cpu time      0.0793: real time      0.0800


--------------------------------------------------------------------------------------------------------


     LOOP+:  cpu time   5735.1622: real time   5832.1113
    4ORBIT:  cpu time      0.0000: real time      0.0000

 total amount of memory used by VASP MPI-rank0   339258. kBytes
=======================================================================

   base      :      30000. kBytes
   nonl-proj :     107913. kBytes
   fftplans  :       6154. kBytes
   grid      :      10964. kBytes
   one-center:        202. kBytes
   wavefun   :     184025. kBytes
 
  
  
 General timing and accounting informations for this job:
 ========================================================
  
                  Total CPU time used (sec):     5808.700
                            User time (sec):     5717.020
                          System time (sec):       91.679
                         Elapsed time (sec):     5908.132
  
                   Maximum memory used (kb):      557396.
                   Average memory used (kb):          N/A
  
                          Minor page faults:        96910
                          Major page faults:         8390
                 Voluntary context switches:          730
