 vasp.6.3.0 20Jan22 (build Oct 14 2024 11:24:38) complex                        
  
 executed on             LinuxIFC date 2025.05.01  23:18:53
 running on   64 total cores
 distrk:  each k-point on   64 cores,    1 groups
 distr:  one band on NCORE=   8 cores,    8 groups


--------------------------------------------------------------------------------------------------------


 INCAR:
   ISTART = 0            (Read existing wavefunction
   ISPIN = 1            (Non-Spin polarised DFT)
   LREAL = .FALSE.       (Projection operators: automatic)
   ENCUT = 500          (Cut-off energy for plane wave basis set, in eV)
   PREC = Accurate     (Precision level)
   LWAVE = .FALSE.       (Write WAVECAR or not)
   LCHARG = .FALSE.       (Write CHGCAR or not)
   NSW = 0
   IBRION = -1
   ISMEAR = 0            (gaussian smearing method)
   SIGMA = 0.05         (please check the width of the smearing)
   NELM = 60           (Max electronic SCF steps)
   EDIFF = 1E-06        (SCF energy convergence
   NCORE = 8             (square root of total cores)

 POTCAR:    PAW_PBE Ni 02Aug2007                  
 POTCAR:    PAW_PBE Ni 02Aug2007                  
   VRHFIN =Ni:                                                                                      
   LEXCH  = PE                                                                                      
   EATOM  =  1077.6739 eV,   79.2068 Ry                                                             
                                                                                                    
   TITEL  = PAW_PBE Ni 02Aug2007                                                                    
   LULTRA =        F    use ultrasoft PP ?                                                          
   IUNSCR =        1    unscreen: 0-lin 1-nonlin 2-no                                               
   RPACOR =    2.000    partial core radius                                                         
   POMASS =   58.690; ZVAL   =   10.000    mass and valenz                                          
   RCORE  =    2.300    outmost cutoff radius                                                       
   RWIGS  =    2.430; RWIGS  =    1.286    wigner-seitz radius (au A)                               
   ENMAX  =  269.532; ENMIN  =  202.149 eV                                                          
   RCLOC  =    1.201    cutoff for local pot                                                        
   LCOR   =        T    correct aug charges                                                         
   LPAW   =        T    paw PP                                                                      
   EAUG   =  544.565                                                                                
   DEXC   =    0.000                                                                                
   RMAX   =    2.357    core radius for proj-oper                                                   
   RAUG   =    1.300    factor for augmentation sphere                                              
   RDEP   =    2.390    radius for radial grids                                                     
   RDEPT  =    1.838    core radius for aug-charge                                                  
                                                                                                    
   Atomic configuration                                                                             
    9 entries                                                                                       
     n  l   j            E        occ.                                                              
     1  0  0.50     -8206.4253   2.0000                                                             
     2  0  0.50      -976.1748   2.0000                                                             
     2  1  1.50      -839.0571   6.0000                                                             
     3  0  0.50      -105.9991   2.0000                                                             
     3  1  1.50       -66.4603   6.0000                                                             
     3  2  2.50        -4.6458   9.0000                                                             
     4  0  0.50        -4.4926   1.0000                                                             
     4  1  1.50        -4.0817   0.0000                                                             
     4  3  2.50        -1.3606   0.0000                                                             
   Description                                                                                      
     l       E           TYP  RCUT    TYP  RCUT                                                     
     2     -4.6457903     23  2.300                                                                 
     2     -6.0063729     23  2.300                                                                 
     0     -4.4925590     23  2.300                                                                 
     0      5.0102601     23  2.300                                                                 
     1     -2.7211652     23  2.300                                                                 
     1     16.5183231     23  2.300                                                                 
  local pseudopotential read in
  partial core-charges read in
  partial kinetic energy density read in
  atomic valenz-charges read in
  non local Contribution for L=           2  read in
    real space projection operators read in
  non local Contribution for L=           2  read in
    real space projection operators read in
  non local Contribution for L=           0  read in
    real space projection operators read in
  non local Contribution for L=           0  read in
    real space projection operators read in
  non local Contribution for L=           1  read in
    real space projection operators read in
  non local Contribution for L=           1  read in
    real space projection operators read in
    PAW grid and wavefunctions read in
 
   number of l-projection  operators is LMAX  =           6
   number of lm-projection operators is LMMAX =          18
 
  PAW_PBE Ni 02Aug2007                  :
 energy of atom  1       EATOM=-1077.6739
 kinetic energy error for atom=    0.0030 (will be added to EATOM!!)
 
 
 POSCAR: Ni fcc
  positions in direct lattice
  No initial velocities read in
 exchange correlation table for  LEXCH =        8
   RHO(1)=    0.500       N(1)  =     2000
   RHO(2)=  100.500       N(2)  =     4000
 


--------------------------------------------------------------------------------------------------------


 ion  position               nearest neighbor table
   1  0.000  0.000  0.000-
 
  LATTYP: Found a face centered cubic cell.
 ALAT       =     3.4857380000
  
  Lattice vectors:
  
 A1 = (   0.0000000000,   1.7428690000,   1.7428690000)
 A2 = (   1.7428690000,   0.0000000000,   1.7428690000)
 A3 = (   1.7428690000,   1.7428690000,   0.0000000000)


Analysis of symmetry for initial positions (statically):
=====================================================================
 Subroutine PRICEL returns:
 Original cell was already a primitive cell.
 

 Routine SETGRP: Setting up the symmetry group for a 
 face centered cubic supercell.


 Subroutine GETGRP returns: Found 48 space group operations
 (whereof 48 operations were pure point group operations)
 out of a pool of 48 trial point group operations.


The static configuration has the point symmetry O_h .


Analysis of symmetry for dynamics (positions and initial velocities):
=====================================================================
 Subroutine PRICEL returns:
 Original cell was already a primitive cell.
 

 Routine SETGRP: Setting up the symmetry group for a 
 face centered cubic supercell.


 Subroutine GETGRP returns: Found 48 space group operations
 (whereof 48 operations were pure point group operations)
 out of a pool of 48 trial point group operations.


The dynamic configuration has the point symmetry O_h .


 Subroutine INISYM returns: Found 48 space group operations
 (whereof 48 operations are pure point group operations),
 and found     1 'primitive' translations


----------------------------------------------------------------------------------------

                                     Primitive cell                                     

  volume of cell :      10.5883

  direct lattice vectors                    reciprocal lattice vectors
     0.000000000  1.742869000  1.742869000    -0.286883294  0.286883294  0.286883294
     1.742869000  0.000000000  1.742869000     0.286883294 -0.286883294  0.286883294
     1.742869000  1.742869000  0.000000000     0.286883294  0.286883294 -0.286883294

  length of vectors
     2.464788977  2.464788977  2.464788977     0.496896441  0.496896441  0.496896441

  position of ions in fractional coordinates (direct lattice)
     0.000000000  0.000000000  0.000000000

  ion indices of the primitive-cell ions
   primitive index   ion index
                 1           1

----------------------------------------------------------------------------------------

 
 
 KPOINTS: K-Spacing Value to Generate K-Mesh: 0.02

Automatic generation of k-mesh.
 Grid dimensions read from file:
 generate k-points for:   25   25   25

 Generating k-lattice:

  Cartesian coordinates                     Fractional coordinates (reciprocal lattice)
    -0.011475332  0.011475332  0.011475332     0.040000000 -0.000000000  0.000000000
     0.011475332 -0.011475332  0.011475332    -0.000000000  0.040000000 -0.000000000
     0.011475332  0.011475332 -0.011475332     0.000000000  0.000000000  0.040000000

  Length of vectors
     0.019875858  0.019875858  0.019875858

  Shift w.r.t. Gamma in fractional coordinates (k-lattice)
     0.000000000  0.000000000  0.000000000

 
 Subroutine IBZKPT returns following result:
 ===========================================
 
 Found    455 irreducible k-points:
 
 Following reciprocal coordinates:
            Coordinates               Weight
  0.000000  0.000000  0.000000      1.000000
  0.040000 -0.000000  0.000000      8.000000
  0.080000 -0.000000  0.000000      8.000000
  0.120000  0.000000 -0.000000      8.000000
  0.160000 -0.000000  0.000000      8.000000
  0.200000  0.000000 -0.000000      8.000000
  0.240000 -0.000000 -0.000000      8.000000
  0.280000  0.000000 -0.000000      8.000000
  0.320000 -0.000000  0.000000      8.000000
  0.360000 -0.000000 -0.000000      8.000000
  0.400000 -0.000000 -0.000000      8.000000
  0.440000 -0.000000  0.000000      8.000000
  0.480000  0.000000 -0.000000      8.000000
  0.040000  0.040000 -0.000000      6.000000
  0.080000  0.040000 -0.000000     24.000000
  0.120000  0.040000 -0.000000     24.000000
  0.160000  0.040000 -0.000000     24.000000
  0.200000  0.040000 -0.000000     24.000000
  0.240000  0.040000 -0.000000     24.000000
  0.280000  0.040000 -0.000000     24.000000
  0.320000  0.040000 -0.000000     24.000000
  0.360000  0.040000  0.000000     24.000000
  0.400000  0.040000 -0.000000     24.000000
  0.440000  0.040000 -0.000000     24.000000
  0.480000  0.040000  0.000000     24.000000
 -0.480000  0.040000  0.000000     24.000000
 -0.440000  0.040000  0.000000     24.000000
 -0.400000  0.040000 -0.000000     24.000000
 -0.360000  0.040000 -0.000000     24.000000
 -0.320000  0.040000  0.000000     24.000000
 -0.280000  0.040000 -0.000000     24.000000
 -0.240000  0.040000  0.000000     24.000000
 -0.200000  0.040000  0.000000     24.000000
 -0.160000  0.040000 -0.000000     24.000000
 -0.120000  0.040000  0.000000     24.000000
 -0.080000  0.040000  0.000000     24.000000
 -0.040000  0.040000  0.000000     12.000000
  0.080000  0.080000 -0.000000      6.000000
  0.120000  0.080000 -0.000000     24.000000
  0.160000  0.080000 -0.000000     24.000000
  0.200000  0.080000 -0.000000     24.000000
  0.240000  0.080000 -0.000000     24.000000
  0.280000  0.080000 -0.000000     24.000000
  0.320000  0.080000 -0.000000     24.000000
  0.360000  0.080000 -0.000000     24.000000
  0.400000  0.080000 -0.000000     24.000000
  0.440000  0.080000 -0.000000     24.000000
  0.480000  0.080000 -0.000000     24.000000
 -0.480000  0.080000 -0.000000     24.000000
 -0.440000  0.080000  0.000000     24.000000
 -0.400000  0.080000  0.000000     24.000000
 -0.360000  0.080000 -0.000000     24.000000
 -0.320000  0.080000  0.000000     24.000000
 -0.280000  0.080000  0.000000     24.000000
 -0.240000  0.080000 -0.000000     24.000000
 -0.200000  0.080000  0.000000     24.000000
 -0.160000  0.080000  0.000000     24.000000
 -0.120000  0.080000 -0.000000     24.000000
 -0.080000  0.080000 -0.000000     12.000000
  0.120000  0.120000 -0.000000      6.000000
  0.160000  0.120000 -0.000000     24.000000
  0.200000  0.120000 -0.000000     24.000000
  0.240000  0.120000 -0.000000     24.000000
  0.280000  0.120000 -0.000000     24.000000
  0.320000  0.120000 -0.000000     24.000000
  0.360000  0.120000 -0.000000     24.000000
  0.400000  0.120000 -0.000000     24.000000
  0.440000  0.120000 -0.000000     24.000000
  0.480000  0.120000 -0.000000     24.000000
 -0.480000  0.120000  0.000000     24.000000
 -0.440000  0.120000 -0.000000     24.000000
 -0.400000  0.120000  0.000000     24.000000
 -0.360000  0.120000  0.000000     24.000000
 -0.320000  0.120000 -0.000000     24.000000
 -0.280000  0.120000 -0.000000     24.000000
 -0.240000  0.120000  0.000000     24.000000
 -0.200000  0.120000 -0.000000     24.000000
 -0.160000  0.120000  0.000000     24.000000
 -0.120000  0.120000  0.000000     12.000000
  0.160000  0.160000 -0.000000      6.000000
  0.200000  0.160000 -0.000000     24.000000
  0.240000  0.160000 -0.000000     24.000000
  0.280000  0.160000 -0.000000     24.000000
  0.320000  0.160000 -0.000000     24.000000
  0.360000  0.160000 -0.000000     24.000000
  0.400000  0.160000 -0.000000     24.000000
  0.440000  0.160000 -0.000000     24.000000
  0.480000  0.160000 -0.000000     24.000000
 -0.480000  0.160000  0.000000     24.000000
 -0.440000  0.160000  0.000000     24.000000
 -0.400000  0.160000 -0.000000     24.000000
 -0.360000  0.160000  0.000000     24.000000
 -0.320000  0.160000  0.000000     24.000000
 -0.280000  0.160000 -0.000000     24.000000
 -0.240000  0.160000 -0.000000     24.000000
 -0.200000  0.160000  0.000000     24.000000
 -0.160000  0.160000 -0.000000     12.000000
  0.200000  0.200000 -0.000000      6.000000
  0.240000  0.200000 -0.000000     24.000000
  0.280000  0.200000 -0.000000     24.000000
  0.320000  0.200000 -0.000000     24.000000
  0.360000  0.200000 -0.000000     24.000000
  0.400000  0.200000 -0.000000     24.000000
  0.440000  0.200000 -0.000000     24.000000
  0.480000  0.200000 -0.000000     24.000000
 -0.480000  0.200000  0.000000     24.000000
 -0.440000  0.200000 -0.000000     24.000000
 -0.400000  0.200000 -0.000000     24.000000
 -0.360000  0.200000  0.000000     24.000000
 -0.320000  0.200000 -0.000000     24.000000
 -0.280000  0.200000  0.000000     24.000000
 -0.240000  0.200000 -0.000000     24.000000
 -0.200000  0.200000 -0.000000     12.000000
  0.240000  0.240000 -0.000000      6.000000
  0.280000  0.240000 -0.000000     24.000000
  0.320000  0.240000 -0.000000     24.000000
  0.360000  0.240000 -0.000000     24.000000
  0.400000  0.240000 -0.000000     24.000000
  0.440000  0.240000 -0.000000     24.000000
  0.480000  0.240000 -0.000000     24.000000
 -0.480000  0.240000  0.000000     24.000000
 -0.440000  0.240000  0.000000     24.000000
 -0.400000  0.240000 -0.000000     24.000000
 -0.360000  0.240000  0.000000     24.000000
 -0.320000  0.240000  0.000000     24.000000
 -0.280000  0.240000 -0.000000     24.000000
 -0.240000  0.240000  0.000000     12.000000
  0.280000  0.280000 -0.000000      6.000000
  0.320000  0.280000 -0.000000     24.000000
  0.360000  0.280000 -0.000000     24.000000
  0.400000  0.280000 -0.000000     24.000000
  0.440000  0.280000 -0.000000     24.000000
  0.480000  0.280000 -0.000000     24.000000
 -0.480000  0.280000 -0.000000     24.000000
 -0.440000  0.280000  0.000000     24.000000
 -0.400000  0.280000  0.000000     24.000000
 -0.360000  0.280000 -0.000000     24.000000
 -0.320000  0.280000 -0.000000     24.000000
 -0.280000  0.280000  0.000000     12.000000
  0.320000  0.320000 -0.000000      6.000000
  0.360000  0.320000 -0.000000     24.000000
  0.400000  0.320000 -0.000000     24.000000
  0.440000  0.320000 -0.000000     24.000000
  0.480000  0.320000 -0.000000     24.000000
 -0.480000  0.320000  0.000000     24.000000
 -0.440000  0.320000 -0.000000     24.000000
 -0.400000  0.320000  0.000000     24.000000
 -0.360000  0.320000  0.000000     24.000000
 -0.320000  0.320000 -0.000000     12.000000
  0.360000  0.360000 -0.000000      6.000000
  0.400000  0.360000 -0.000000     24.000000
  0.440000  0.360000 -0.000000     24.000000
  0.480000  0.360000 -0.000000     24.000000
 -0.480000  0.360000  0.000000     24.000000
 -0.440000  0.360000 -0.000000     24.000000
 -0.400000  0.360000 -0.000000     24.000000
 -0.360000  0.360000  0.000000     12.000000
  0.400000  0.400000 -0.000000      6.000000
  0.440000  0.400000 -0.000000     24.000000
  0.480000  0.400000 -0.000000     24.000000
 -0.480000  0.400000 -0.000000     24.000000
 -0.440000  0.400000  0.000000     24.000000
 -0.400000  0.400000 -0.000000     12.000000
  0.440000  0.440000 -0.000000      6.000000
  0.480000  0.440000 -0.000000     24.000000
 -0.480000  0.440000 -0.000000     24.000000
 -0.440000  0.440000 -0.000000     12.000000
  0.480000  0.480000 -0.000000      6.000000
 -0.480000  0.480000  0.000000     12.000000
  0.120000  0.080000  0.040000     24.000000
  0.160000  0.080000  0.040000     48.000000
  0.200000  0.080000  0.040000     48.000000
  0.240000  0.080000  0.040000     48.000000
  0.280000  0.080000  0.040000     48.000000
  0.320000  0.080000  0.040000     48.000000
  0.360000  0.080000  0.040000     48.000000
  0.400000  0.080000  0.040000     48.000000
  0.440000  0.080000  0.040000     48.000000
  0.480000  0.080000  0.040000     48.000000
 -0.480000  0.080000  0.040000     48.000000
  0.160000  0.120000  0.040000     24.000000
  0.200000  0.120000  0.040000     48.000000
  0.240000  0.120000  0.040000     48.000000
  0.280000  0.120000  0.040000     48.000000
  0.320000  0.120000  0.040000     48.000000
  0.360000  0.120000  0.040000     48.000000
  0.400000  0.120000  0.040000     48.000000
  0.440000  0.120000  0.040000     48.000000
  0.480000  0.120000  0.040000     48.000000
 -0.480000  0.120000  0.040000     48.000000
 -0.440000  0.120000  0.040000     48.000000
 -0.400000  0.120000  0.040000     48.000000
 -0.360000  0.120000  0.040000     48.000000
 -0.320000  0.120000  0.040000     48.000000
 -0.280000  0.120000  0.040000     48.000000
 -0.240000  0.120000  0.040000     48.000000
 -0.200000  0.120000  0.040000     48.000000
 -0.160000  0.120000  0.040000     48.000000
 -0.120000  0.120000  0.040000     48.000000
 -0.080000  0.120000  0.040000     24.000000
  0.200000  0.160000  0.040000     24.000000
  0.240000  0.160000  0.040000     48.000000
  0.280000  0.160000  0.040000     48.000000
  0.320000  0.160000  0.040000     48.000000
  0.360000  0.160000  0.040000     48.000000
  0.400000  0.160000  0.040000     48.000000
  0.440000  0.160000  0.040000     48.000000
  0.480000  0.160000  0.040000     48.000000
 -0.480000  0.160000  0.040000     48.000000
 -0.440000  0.160000  0.040000     48.000000
 -0.400000  0.160000  0.040000     48.000000
 -0.360000  0.160000  0.040000     48.000000
 -0.320000  0.160000  0.040000     48.000000
 -0.280000  0.160000  0.040000     48.000000
 -0.240000  0.160000  0.040000     48.000000
 -0.200000  0.160000  0.040000     48.000000
 -0.160000  0.160000  0.040000     48.000000
 -0.120000  0.160000  0.040000     24.000000
  0.240000  0.200000  0.040000     24.000000
  0.280000  0.200000  0.040000     48.000000
  0.320000  0.200000  0.040000     48.000000
  0.360000  0.200000  0.040000     48.000000
  0.400000  0.200000  0.040000     48.000000
  0.440000  0.200000  0.040000     48.000000
  0.480000  0.200000  0.040000     48.000000
 -0.480000  0.200000  0.040000     48.000000
 -0.440000  0.200000  0.040000     48.000000
 -0.400000  0.200000  0.040000     48.000000
 -0.360000  0.200000  0.040000     48.000000
 -0.320000  0.200000  0.040000     48.000000
 -0.280000  0.200000  0.040000     48.000000
 -0.240000  0.200000  0.040000     48.000000
 -0.200000  0.200000  0.040000     48.000000
 -0.160000  0.200000  0.040000     24.000000
  0.280000  0.240000  0.040000     24.000000
  0.320000  0.240000  0.040000     48.000000
  0.360000  0.240000  0.040000     48.000000
  0.400000  0.240000  0.040000     48.000000
  0.440000  0.240000  0.040000     48.000000
  0.480000  0.240000  0.040000     48.000000
 -0.480000  0.240000  0.040000     48.000000
 -0.440000  0.240000  0.040000     48.000000
 -0.400000  0.240000  0.040000     48.000000
 -0.360000  0.240000  0.040000     48.000000
 -0.320000  0.240000  0.040000     48.000000
 -0.280000  0.240000  0.040000     48.000000
 -0.240000  0.240000  0.040000     48.000000
 -0.200000  0.240000  0.040000     24.000000
  0.320000  0.280000  0.040000     24.000000
  0.360000  0.280000  0.040000     48.000000
  0.400000  0.280000  0.040000     48.000000
  0.440000  0.280000  0.040000     48.000000
  0.480000  0.280000  0.040000     48.000000
 -0.480000  0.280000  0.040000     48.000000
 -0.440000  0.280000  0.040000     48.000000
 -0.400000  0.280000  0.040000     48.000000
 -0.360000  0.280000  0.040000     48.000000
 -0.320000  0.280000  0.040000     48.000000
 -0.280000  0.280000  0.040000     48.000000
 -0.240000  0.280000  0.040000     24.000000
  0.360000  0.320000  0.040000     24.000000
  0.400000  0.320000  0.040000     48.000000
  0.440000  0.320000  0.040000     48.000000
  0.480000  0.320000  0.040000     48.000000
 -0.480000  0.320000  0.040000     48.000000
 -0.440000  0.320000  0.040000     48.000000
 -0.400000  0.320000  0.040000     48.000000
 -0.360000  0.320000  0.040000     48.000000
 -0.320000  0.320000  0.040000     48.000000
 -0.280000  0.320000  0.040000     24.000000
  0.400000  0.360000  0.040000     24.000000
  0.440000  0.360000  0.040000     48.000000
  0.480000  0.360000  0.040000     48.000000
 -0.480000  0.360000  0.040000     48.000000
 -0.440000  0.360000  0.040000     48.000000
 -0.400000  0.360000  0.040000     48.000000
 -0.360000  0.360000  0.040000     48.000000
 -0.320000  0.360000  0.040000     24.000000
  0.440000  0.400000  0.040000     24.000000
  0.480000  0.400000  0.040000     48.000000
 -0.480000  0.400000  0.040000     48.000000
 -0.440000  0.400000  0.040000     48.000000
 -0.400000  0.400000  0.040000     48.000000
 -0.360000  0.400000  0.040000     24.000000
  0.480000  0.440000  0.040000     24.000000
 -0.480000  0.440000  0.040000     48.000000
 -0.440000  0.440000  0.040000     48.000000
 -0.400000  0.440000  0.040000     24.000000
 -0.480000  0.480000  0.040000     24.000000
 -0.440000  0.480000  0.040000     24.000000
  0.240000  0.160000  0.080000     24.000000
  0.280000  0.160000  0.080000     48.000000
  0.320000  0.160000  0.080000     48.000000
  0.360000  0.160000  0.080000     48.000000
  0.400000  0.160000  0.080000     48.000000
  0.440000  0.160000  0.080000     48.000000
  0.480000  0.160000  0.080000     48.000000
 -0.480000  0.160000  0.080000     48.000000
 -0.440000  0.160000  0.080000     48.000000
  0.280000  0.200000  0.080000     24.000000
  0.320000  0.200000  0.080000     48.000000
  0.360000  0.200000  0.080000     48.000000
  0.400000  0.200000  0.080000     48.000000
  0.440000  0.200000  0.080000     48.000000
  0.480000  0.200000  0.080000     48.000000
 -0.480000  0.200000  0.080000     48.000000
 -0.440000  0.200000  0.080000     48.000000
 -0.400000  0.200000  0.080000     48.000000
 -0.360000  0.200000  0.080000     48.000000
 -0.320000  0.200000  0.080000     48.000000
 -0.280000  0.200000  0.080000     48.000000
 -0.240000  0.200000  0.080000     48.000000
 -0.200000  0.200000  0.080000     48.000000
 -0.160000  0.200000  0.080000     48.000000
 -0.120000  0.200000  0.080000     24.000000
  0.320000  0.240000  0.080000     24.000000
  0.360000  0.240000  0.080000     48.000000
  0.400000  0.240000  0.080000     48.000000
  0.440000  0.240000  0.080000     48.000000
  0.480000  0.240000  0.080000     48.000000
 -0.480000  0.240000  0.080000     48.000000
 -0.440000  0.240000  0.080000     48.000000
 -0.400000  0.240000  0.080000     48.000000
 -0.360000  0.240000  0.080000     48.000000
 -0.320000  0.240000  0.080000     48.000000
 -0.280000  0.240000  0.080000     48.000000
 -0.240000  0.240000  0.080000     48.000000
 -0.200000  0.240000  0.080000     48.000000
 -0.160000  0.240000  0.080000     24.000000
  0.360000  0.280000  0.080000     24.000000
  0.400000  0.280000  0.080000     48.000000
  0.440000  0.280000  0.080000     48.000000
  0.480000  0.280000  0.080000     48.000000
 -0.480000  0.280000  0.080000     48.000000
 -0.440000  0.280000  0.080000     48.000000
 -0.400000  0.280000  0.080000     48.000000
 -0.360000  0.280000  0.080000     48.000000
 -0.320000  0.280000  0.080000     48.000000
 -0.280000  0.280000  0.080000     48.000000
 -0.240000  0.280000  0.080000     48.000000
 -0.200000  0.280000  0.080000     24.000000
  0.400000  0.320000  0.080000     24.000000
  0.440000  0.320000  0.080000     48.000000
  0.480000  0.320000  0.080000     48.000000
 -0.480000  0.320000  0.080000     48.000000
 -0.440000  0.320000  0.080000     48.000000
 -0.400000  0.320000  0.080000     48.000000
 -0.360000  0.320000  0.080000     48.000000
 -0.320000  0.320000  0.080000     48.000000
 -0.280000  0.320000  0.080000     48.000000
 -0.240000  0.320000  0.080000     24.000000
  0.440000  0.360000  0.080000     24.000000
  0.480000  0.360000  0.080000     48.000000
 -0.480000  0.360000  0.080000     48.000000
 -0.440000  0.360000  0.080000     48.000000
 -0.400000  0.360000  0.080000     48.000000
 -0.360000  0.360000  0.080000     48.000000
 -0.320000  0.360000  0.080000     48.000000
 -0.280000  0.360000  0.080000     24.000000
  0.480000  0.400000  0.080000     24.000000
 -0.480000  0.400000  0.080000     48.000000
 -0.440000  0.400000  0.080000     48.000000
 -0.400000  0.400000  0.080000     48.000000
 -0.360000  0.400000  0.080000     48.000000
 -0.320000  0.400000  0.080000     24.000000
 -0.480000  0.440000  0.080000     24.000000
 -0.440000  0.440000  0.080000     48.000000
 -0.400000  0.440000  0.080000     48.000000
 -0.360000  0.440000  0.080000     24.000000
 -0.440000  0.480000  0.080000     24.000000
 -0.400000  0.480000  0.080000     24.000000
  0.360000  0.240000  0.120000     24.000000
  0.400000  0.240000  0.120000     48.000000
  0.440000  0.240000  0.120000     48.000000
  0.480000  0.240000  0.120000     48.000000
 -0.480000  0.240000  0.120000     48.000000
 -0.440000  0.240000  0.120000     48.000000
 -0.400000  0.240000  0.120000     48.000000
  0.400000  0.280000  0.120000     24.000000
  0.440000  0.280000  0.120000     48.000000
  0.480000  0.280000  0.120000     48.000000
 -0.480000  0.280000  0.120000     48.000000
 -0.440000  0.280000  0.120000     48.000000
 -0.400000  0.280000  0.120000     48.000000
 -0.360000  0.280000  0.120000     48.000000
 -0.320000  0.280000  0.120000     48.000000
 -0.280000  0.280000  0.120000     48.000000
 -0.240000  0.280000  0.120000     48.000000
 -0.200000  0.280000  0.120000     48.000000
 -0.160000  0.280000  0.120000     24.000000
  0.440000  0.320000  0.120000     24.000000
  0.480000  0.320000  0.120000     48.000000
 -0.480000  0.320000  0.120000     48.000000
 -0.440000  0.320000  0.120000     48.000000
 -0.400000  0.320000  0.120000     48.000000
 -0.360000  0.320000  0.120000     48.000000
 -0.320000  0.320000  0.120000     48.000000
 -0.280000  0.320000  0.120000     48.000000
 -0.240000  0.320000  0.120000     48.000000
 -0.200000  0.320000  0.120000     24.000000
  0.480000  0.360000  0.120000     24.000000
 -0.480000  0.360000  0.120000     48.000000
 -0.440000  0.360000  0.120000     48.000000
 -0.400000  0.360000  0.120000     48.000000
 -0.360000  0.360000  0.120000     48.000000
 -0.320000  0.360000  0.120000     48.000000
 -0.280000  0.360000  0.120000     48.000000
 -0.240000  0.360000  0.120000     24.000000
 -0.480000  0.400000  0.120000     24.000000
 -0.440000  0.400000  0.120000     48.000000
 -0.400000  0.400000  0.120000     48.000000
 -0.360000  0.400000  0.120000     48.000000
 -0.320000  0.400000  0.120000     48.000000
 -0.280000  0.400000  0.120000     24.000000
 -0.440000  0.440000  0.120000     24.000000
 -0.400000  0.440000  0.120000     48.000000
 -0.360000  0.440000  0.120000     48.000000
 -0.320000  0.440000  0.120000     24.000000
 -0.400000  0.480000  0.120000     24.000000
 -0.360000  0.480000  0.120000     24.000000
  0.480000  0.320000  0.160000     24.000000
 -0.480000  0.320000  0.160000     48.000000
 -0.440000  0.320000  0.160000     48.000000
 -0.400000  0.320000  0.160000     48.000000
 -0.360000  0.320000  0.160000     48.000000
 -0.480000  0.360000  0.160000     24.000000
 -0.440000  0.360000  0.160000     48.000000
 -0.400000  0.360000  0.160000     48.000000
 -0.360000  0.360000  0.160000     48.000000
 -0.320000  0.360000  0.160000     48.000000
 -0.280000  0.360000  0.160000     48.000000
 -0.240000  0.360000  0.160000     48.000000
 -0.200000  0.360000  0.160000     24.000000
 -0.440000  0.400000  0.160000     24.000000
 -0.400000  0.400000  0.160000     48.000000
 -0.360000  0.400000  0.160000     48.000000
 -0.320000  0.400000  0.160000     48.000000
 -0.280000  0.400000  0.160000     48.000000
 -0.240000  0.400000  0.160000     24.000000
 -0.400000  0.440000  0.160000     24.000000
 -0.360000  0.440000  0.160000     48.000000
 -0.320000  0.440000  0.160000     48.000000
 -0.280000  0.440000  0.160000     24.000000
 -0.360000  0.480000  0.160000     24.000000
 -0.320000  0.480000  0.160000     24.000000
 -0.400000  0.400000  0.200000     24.000000
 -0.360000  0.400000  0.200000     48.000000
 -0.320000  0.400000  0.200000     48.000000
 -0.360000  0.440000  0.200000     24.000000
 -0.320000  0.440000  0.200000     48.000000
 -0.280000  0.440000  0.200000     48.000000
 -0.240000  0.440000  0.200000     24.000000
 -0.320000  0.480000  0.200000     24.000000
 -0.280000  0.480000  0.200000     24.000000
 -0.280000  0.480000  0.240000     24.000000
 
 Following cartesian coordinates:
            Coordinates               Weight
  0.000000  0.000000  0.000000      1.000000
 -0.011475  0.011475  0.011475      8.000000
 -0.022951  0.022951  0.022951      8.000000
 -0.034426  0.034426  0.034426      8.000000
 -0.045901  0.045901  0.045901      8.000000
 -0.057377  0.057377  0.057377      8.000000
 -0.068852  0.068852  0.068852      8.000000
 -0.080327  0.080327  0.080327      8.000000
 -0.091803  0.091803  0.091803      8.000000
 -0.103278  0.103278  0.103278      8.000000
 -0.114753  0.114753  0.114753      8.000000
 -0.126229  0.126229  0.126229      8.000000
 -0.137704  0.137704  0.137704      8.000000
  0.000000 -0.000000  0.022951      6.000000
 -0.011475  0.011475  0.034426     24.000000
 -0.022951  0.022951  0.045901     24.000000
 -0.034426  0.034426  0.057377     24.000000
 -0.045901  0.045901  0.068852     24.000000
 -0.057377  0.057377  0.080327     24.000000
 -0.068852  0.068852  0.091803     24.000000
 -0.080327  0.080327  0.103278     24.000000
 -0.091803  0.091803  0.114753     24.000000
 -0.103278  0.103278  0.126229     24.000000
 -0.114753  0.114753  0.137704     24.000000
 -0.126229  0.126229  0.149179     24.000000
  0.149179 -0.149179 -0.126229     24.000000
  0.137704 -0.137704 -0.114753     24.000000
  0.126229 -0.126229 -0.103278     24.000000
  0.114753 -0.114753 -0.091803     24.000000
  0.103278 -0.103278 -0.080327     24.000000
  0.091803 -0.091803 -0.068852     24.000000
  0.080327 -0.080327 -0.057377     24.000000
  0.068852 -0.068852 -0.045901     24.000000
  0.057377 -0.057377 -0.034426     24.000000
  0.045901 -0.045901 -0.022951     24.000000
  0.034426 -0.034426 -0.011475     24.000000
  0.022951 -0.022951 -0.000000     12.000000
  0.000000 -0.000000  0.045901      6.000000
 -0.011475  0.011475  0.057377     24.000000
 -0.022951  0.022951  0.068852     24.000000
 -0.034426  0.034426  0.080327     24.000000
 -0.045901  0.045901  0.091803     24.000000
 -0.057377  0.057377  0.103278     24.000000
 -0.068852  0.068852  0.114753     24.000000
 -0.080327  0.080327  0.126229     24.000000
 -0.091803  0.091803  0.137704     24.000000
 -0.103278  0.103278  0.149179     24.000000
 -0.114753  0.114753  0.160655     24.000000
  0.160655 -0.160655 -0.114753     24.000000
  0.149179 -0.149179 -0.103278     24.000000
  0.137704 -0.137704 -0.091803     24.000000
  0.126229 -0.126229 -0.080327     24.000000
  0.114753 -0.114753 -0.068852     24.000000
  0.103278 -0.103278 -0.057377     24.000000
  0.091803 -0.091803 -0.045901     24.000000
  0.080327 -0.080327 -0.034426     24.000000
  0.068852 -0.068852 -0.022951     24.000000
  0.057377 -0.057377 -0.011475     24.000000
  0.045901 -0.045901  0.000000     12.000000
 -0.000000 -0.000000  0.068852      6.000000
 -0.011475  0.011475  0.080327     24.000000
 -0.022951  0.022951  0.091803     24.000000
 -0.034426  0.034426  0.103278     24.000000
 -0.045901  0.045901  0.114753     24.000000
 -0.057377  0.057377  0.126229     24.000000
 -0.068852  0.068852  0.137704     24.000000
 -0.080327  0.080327  0.149179     24.000000
 -0.091803  0.091803  0.160655     24.000000
 -0.103278  0.103278  0.172130     24.000000
  0.172130 -0.172130 -0.103278     24.000000
  0.160655 -0.160655 -0.091803     24.000000
  0.149179 -0.149179 -0.080327     24.000000
  0.137704 -0.137704 -0.068852     24.000000
  0.126229 -0.126229 -0.057377     24.000000
  0.114753 -0.114753 -0.045901     24.000000
  0.103278 -0.103278 -0.034426     24.000000
  0.091803 -0.091803 -0.022951     24.000000
  0.080327 -0.080327 -0.011475     24.000000
  0.068852 -0.068852 -0.000000     12.000000
  0.000000 -0.000000  0.091803      6.000000
 -0.011475  0.011475  0.103278     24.000000
 -0.022951  0.022951  0.114753     24.000000
 -0.034426  0.034426  0.126229     24.000000
 -0.045901  0.045901  0.137704     24.000000
 -0.057377  0.057377  0.149179     24.000000
 -0.068852  0.068852  0.160655     24.000000
 -0.080327  0.080327  0.172130     24.000000
 -0.091803  0.091803  0.183605     24.000000
  0.183605 -0.183605 -0.091803     24.000000
  0.172130 -0.172130 -0.080327     24.000000
  0.160655 -0.160655 -0.068852     24.000000
  0.149179 -0.149179 -0.057377     24.000000
  0.137704 -0.137704 -0.045901     24.000000
  0.126229 -0.126229 -0.034426     24.000000
  0.114753 -0.114753 -0.022951     24.000000
  0.103278 -0.103278 -0.011475     24.000000
  0.091803 -0.091803  0.000000     12.000000
 -0.000000 -0.000000  0.114753      6.000000
 -0.011475  0.011475  0.126229     24.000000
 -0.022951  0.022951  0.137704     24.000000
 -0.034426  0.034426  0.149179     24.000000
 -0.045901  0.045901  0.160655     24.000000
 -0.057377  0.057377  0.172130     24.000000
 -0.068852  0.068852  0.183605     24.000000
 -0.080327  0.080327  0.195081     24.000000
  0.195081 -0.195081 -0.080327     24.000000
  0.183605 -0.183605 -0.068852     24.000000
  0.172130 -0.172130 -0.057377     24.000000
  0.160655 -0.160655 -0.045901     24.000000
  0.149179 -0.149179 -0.034426     24.000000
  0.137704 -0.137704 -0.022951     24.000000
  0.126229 -0.126229 -0.011475     24.000000
  0.114753 -0.114753  0.000000     12.000000
 -0.000000  0.000000  0.137704      6.000000
 -0.011475  0.011475  0.149179     24.000000
 -0.022951  0.022951  0.160655     24.000000
 -0.034426  0.034426  0.172130     24.000000
 -0.045901  0.045901  0.183605     24.000000
 -0.057377  0.057377  0.195081     24.000000
 -0.068852  0.068852  0.206556     24.000000
  0.206556 -0.206556 -0.068852     24.000000
  0.195081 -0.195081 -0.057377     24.000000
  0.183605 -0.183605 -0.045901     24.000000
  0.172130 -0.172130 -0.034426     24.000000
  0.160655 -0.160655 -0.022951     24.000000
  0.149179 -0.149179 -0.011475     24.000000
  0.137704 -0.137704  0.000000     12.000000
 -0.000000  0.000000  0.160655      6.000000
 -0.011475  0.011475  0.172130     24.000000
 -0.022951  0.022951  0.183605     24.000000
 -0.034426  0.034426  0.195081     24.000000
 -0.045901  0.045901  0.206556     24.000000
 -0.057377  0.057377  0.218031     24.000000
  0.218031 -0.218031 -0.057377     24.000000
  0.206556 -0.206556 -0.045901     24.000000
  0.195081 -0.195081 -0.034426     24.000000
  0.183605 -0.183605 -0.022951     24.000000
  0.172130 -0.172130 -0.011475     24.000000
  0.160655 -0.160655 -0.000000     12.000000
  0.000000 -0.000000  0.183605      6.000000
 -0.011475  0.011475  0.195081     24.000000
 -0.022951  0.022951  0.206556     24.000000
 -0.034426  0.034426  0.218031     24.000000
 -0.045901  0.045901  0.229507     24.000000
  0.229507 -0.229507 -0.045901     24.000000
  0.218031 -0.218031 -0.034426     24.000000
  0.206556 -0.206556 -0.022951     24.000000
  0.195081 -0.195081 -0.011475     24.000000
  0.183605 -0.183605  0.000000     12.000000
 -0.000000  0.000000  0.206556      6.000000
 -0.011475  0.011475  0.218031     24.000000
 -0.022951  0.022951  0.229507     24.000000
 -0.034426  0.034426  0.240982     24.000000
  0.240982 -0.240982 -0.034426     24.000000
  0.229507 -0.229507 -0.022951     24.000000
  0.218031 -0.218031 -0.011475     24.000000
  0.206556 -0.206556  0.000000     12.000000
 -0.000000 -0.000000  0.229507      6.000000
 -0.011475  0.011475  0.240982     24.000000
 -0.022951  0.022951  0.252457     24.000000
  0.252457 -0.252457 -0.022951     24.000000
  0.240982 -0.240982 -0.011475     24.000000
  0.229507 -0.229507  0.000000     12.000000
  0.000000 -0.000000  0.252457      6.000000
 -0.011475  0.011475  0.263933     24.000000
  0.263933 -0.263933 -0.011475     24.000000
  0.252457 -0.252457  0.000000     12.000000
 -0.000000 -0.000000  0.275408      6.000000
  0.275408 -0.275408 -0.000000     12.000000
  0.000000  0.022951  0.045901     24.000000
 -0.011475  0.034426  0.057377     48.000000
 -0.022951  0.045901  0.068852     48.000000
 -0.034426  0.057377  0.080327     48.000000
 -0.045901  0.068852  0.091803     48.000000
 -0.057377  0.080327  0.103278     48.000000
 -0.068852  0.091803  0.114753     48.000000
 -0.080327  0.103278  0.126229     48.000000
 -0.091803  0.114753  0.137704     48.000000
 -0.103278  0.126229  0.149179     48.000000
  0.172130 -0.149179 -0.126229     48.000000
  0.000000  0.022951  0.068852     24.000000
 -0.011475  0.034426  0.080327     48.000000
 -0.022951  0.045901  0.091803     48.000000
 -0.034426  0.057377  0.103278     48.000000
 -0.045901  0.068852  0.114753     48.000000
 -0.057377  0.080327  0.126229     48.000000
 -0.068852  0.091803  0.137704     48.000000
 -0.080327  0.103278  0.149179     48.000000
 -0.091803  0.114753  0.160655     48.000000
  0.183605 -0.160655 -0.114753     48.000000
  0.172130 -0.149179 -0.103278     48.000000
  0.160655 -0.137704 -0.091803     48.000000
  0.149179 -0.126229 -0.080327     48.000000
  0.137704 -0.114753 -0.068852     48.000000
  0.126229 -0.103278 -0.057377     48.000000
  0.114753 -0.091803 -0.045901     48.000000
  0.103278 -0.080327 -0.034426     48.000000
  0.091803 -0.068852 -0.022951     48.000000
  0.080327 -0.057377 -0.011475     48.000000
  0.068852 -0.045901 -0.000000     24.000000
 -0.000000  0.022951  0.091803     24.000000
 -0.011475  0.034426  0.103278     48.000000
 -0.022951  0.045901  0.114753     48.000000
 -0.034426  0.057377  0.126229     48.000000
 -0.045901  0.068852  0.137704     48.000000
 -0.057377  0.080327  0.149179     48.000000
 -0.068852  0.091803  0.160655     48.000000
 -0.080327  0.103278  0.172130     48.000000
  0.195081 -0.172130 -0.103278     48.000000
  0.183605 -0.160655 -0.091803     48.000000
  0.172130 -0.149179 -0.080327     48.000000
  0.160655 -0.137704 -0.068852     48.000000
  0.149179 -0.126229 -0.057377     48.000000
  0.137704 -0.114753 -0.045901     48.000000
  0.126229 -0.103278 -0.034426     48.000000
  0.114753 -0.091803 -0.022951     48.000000
  0.103278 -0.080327 -0.011475     48.000000
  0.091803 -0.068852 -0.000000     24.000000
  0.000000  0.022951  0.114753     24.000000
 -0.011475  0.034426  0.126229     48.000000
 -0.022951  0.045901  0.137704     48.000000
 -0.034426  0.057377  0.149179     48.000000
 -0.045901  0.068852  0.160655     48.000000
 -0.057377  0.080327  0.172130     48.000000
 -0.068852  0.091803  0.183605     48.000000
  0.206556 -0.183605 -0.091803     48.000000
  0.195081 -0.172130 -0.080327     48.000000
  0.183605 -0.160655 -0.068852     48.000000
  0.172130 -0.149179 -0.057377     48.000000
  0.160655 -0.137704 -0.045901     48.000000
  0.149179 -0.126229 -0.034426     48.000000
  0.137704 -0.114753 -0.022951     48.000000
  0.126229 -0.103278 -0.011475     48.000000
  0.114753 -0.091803  0.000000     24.000000
  0.000000  0.022951  0.137704     24.000000
 -0.011475  0.034426  0.149179     48.000000
 -0.022951  0.045901  0.160655     48.000000
 -0.034426  0.057377  0.172130     48.000000
 -0.045901  0.068852  0.183605     48.000000
 -0.057377  0.080327  0.195081     48.000000
  0.218031 -0.195081 -0.080327     48.000000
  0.206556 -0.183605 -0.068852     48.000000
  0.195081 -0.172130 -0.057377     48.000000
  0.183605 -0.160655 -0.045901     48.000000
  0.172130 -0.149179 -0.034426     48.000000
  0.160655 -0.137704 -0.022951     48.000000
  0.149179 -0.126229 -0.011475     48.000000
  0.137704 -0.114753 -0.000000     24.000000
  0.000000  0.022951  0.160655     24.000000
 -0.011475  0.034426  0.172130     48.000000
 -0.022951  0.045901  0.183605     48.000000
 -0.034426  0.057377  0.195081     48.000000
 -0.045901  0.068852  0.206556     48.000000
  0.229507 -0.206556 -0.068852     48.000000
  0.218031 -0.195081 -0.057377     48.000000
  0.206556 -0.183605 -0.045901     48.000000
  0.195081 -0.172130 -0.034426     48.000000
  0.183605 -0.160655 -0.022951     48.000000
  0.172130 -0.149179 -0.011475     48.000000
  0.160655 -0.137704 -0.000000     24.000000
  0.000000  0.022951  0.183605     24.000000
 -0.011475  0.034426  0.195081     48.000000
 -0.022951  0.045901  0.206556     48.000000
 -0.034426  0.057377  0.218031     48.000000
  0.240982 -0.218031 -0.057377     48.000000
  0.229507 -0.206556 -0.045901     48.000000
  0.218031 -0.195081 -0.034426     48.000000
  0.206556 -0.183605 -0.022951     48.000000
  0.195081 -0.172130 -0.011475     48.000000
  0.183605 -0.160655 -0.000000     24.000000
  0.000000  0.022951  0.206556     24.000000
 -0.011475  0.034426  0.218031     48.000000
 -0.022951  0.045901  0.229507     48.000000
  0.252457 -0.229507 -0.045901     48.000000
  0.240982 -0.218031 -0.034426     48.000000
  0.229507 -0.206556 -0.022951     48.000000
  0.218031 -0.195081 -0.011475     48.000000
  0.206556 -0.183605 -0.000000     24.000000
  0.000000  0.022951  0.229507     24.000000
 -0.011475  0.034426  0.240982     48.000000
  0.263933 -0.240982 -0.034426     48.000000
  0.252457 -0.229507 -0.022951     48.000000
  0.240982 -0.218031 -0.011475     48.000000
  0.229507 -0.206556 -0.000000     24.000000
  0.000000  0.022951  0.252457     24.000000
  0.275408 -0.252457 -0.022951     48.000000
  0.263933 -0.240982 -0.011475     48.000000
  0.252457 -0.229507 -0.000000     24.000000
  0.286883 -0.263933 -0.011475     24.000000
  0.275408 -0.252457 -0.000000     24.000000
 -0.000000  0.045901  0.091803     24.000000
 -0.011475  0.057377  0.103278     48.000000
 -0.022951  0.068852  0.114753     48.000000
 -0.034426  0.080327  0.126229     48.000000
 -0.045901  0.091803  0.137704     48.000000
 -0.057377  0.103278  0.149179     48.000000
 -0.068852  0.114753  0.160655     48.000000
  0.206556 -0.160655 -0.114753     48.000000
  0.195081 -0.149179 -0.103278     48.000000
  0.000000  0.045901  0.114753     24.000000
 -0.011475  0.057377  0.126229     48.000000
 -0.022951  0.068852  0.137704     48.000000
 -0.034426  0.080327  0.149179     48.000000
 -0.045901  0.091803  0.160655     48.000000
 -0.057377  0.103278  0.172130     48.000000
  0.218031 -0.172130 -0.103278     48.000000
  0.206556 -0.160655 -0.091803     48.000000
  0.195081 -0.149179 -0.080327     48.000000
  0.183605 -0.137704 -0.068852     48.000000
  0.172130 -0.126229 -0.057377     48.000000
  0.160655 -0.114753 -0.045901     48.000000
  0.149179 -0.103278 -0.034426     48.000000
  0.137704 -0.091803 -0.022951     48.000000
  0.126229 -0.080327 -0.011475     48.000000
  0.114753 -0.068852  0.000000     24.000000
  0.000000  0.045901  0.137704     24.000000
 -0.011475  0.057377  0.149179     48.000000
 -0.022951  0.068852  0.160655     48.000000
 -0.034426  0.080327  0.172130     48.000000
 -0.045901  0.091803  0.183605     48.000000
  0.229507 -0.183605 -0.091803     48.000000
  0.218031 -0.172130 -0.080327     48.000000
  0.206556 -0.160655 -0.068852     48.000000
  0.195081 -0.149179 -0.057377     48.000000
  0.183605 -0.137704 -0.045901     48.000000
  0.172130 -0.126229 -0.034426     48.000000
  0.160655 -0.114753 -0.022951     48.000000
  0.149179 -0.103278 -0.011475     48.000000
  0.137704 -0.091803  0.000000     24.000000
  0.000000  0.045901  0.160655     24.000000
 -0.011475  0.057377  0.172130     48.000000
 -0.022951  0.068852  0.183605     48.000000
 -0.034426  0.080327  0.195081     48.000000
  0.240982 -0.195081 -0.080327     48.000000
  0.229507 -0.183605 -0.068852     48.000000
  0.218031 -0.172130 -0.057377     48.000000
  0.206556 -0.160655 -0.045901     48.000000
  0.195081 -0.149179 -0.034426     48.000000
  0.183605 -0.137704 -0.022951     48.000000
  0.172130 -0.126229 -0.011475     48.000000
  0.160655 -0.114753 -0.000000     24.000000
  0.000000  0.045901  0.183605     24.000000
 -0.011475  0.057377  0.195081     48.000000
 -0.022951  0.068852  0.206556     48.000000
  0.252457 -0.206556 -0.068852     48.000000
  0.240982 -0.195081 -0.057377     48.000000
  0.229507 -0.183605 -0.045901     48.000000
  0.218031 -0.172130 -0.034426     48.000000
  0.206556 -0.160655 -0.022951     48.000000
  0.195081 -0.149179 -0.011475     48.000000
  0.183605 -0.137704 -0.000000     24.000000
  0.000000  0.045901  0.206556     24.000000
 -0.011475  0.057377  0.218031     48.000000
  0.263933 -0.218031 -0.057377     48.000000
  0.252457 -0.206556 -0.045901     48.000000
  0.240982 -0.195081 -0.034426     48.000000
  0.229507 -0.183605 -0.022951     48.000000
  0.218031 -0.172130 -0.011475     48.000000
  0.206556 -0.160655 -0.000000     24.000000
  0.000000  0.045901  0.229507     24.000000
  0.275408 -0.229507 -0.045901     48.000000
  0.263933 -0.218031 -0.034426     48.000000
  0.252457 -0.206556 -0.022951     48.000000
  0.240982 -0.195081 -0.011475     48.000000
  0.229507 -0.183605 -0.000000     24.000000
  0.286883 -0.240982 -0.034426     24.000000
  0.275408 -0.229507 -0.022951     48.000000
  0.263933 -0.218031 -0.011475     48.000000
  0.252457 -0.206556 -0.000000     24.000000
  0.286883 -0.240982 -0.011475     24.000000
  0.275408 -0.229507 -0.000000     24.000000
  0.000000  0.068852  0.137704     24.000000
 -0.011475  0.080327  0.149179     48.000000
 -0.022951  0.091803  0.160655     48.000000
 -0.034426  0.103278  0.172130     48.000000
  0.240982 -0.172130 -0.103278     48.000000
  0.229507 -0.160655 -0.091803     48.000000
  0.218031 -0.149179 -0.080327     48.000000
  0.000000  0.068852  0.160655     24.000000
 -0.011475  0.080327  0.172130     48.000000
 -0.022951  0.091803  0.183605     48.000000
  0.252457 -0.183605 -0.091803     48.000000
  0.240982 -0.172130 -0.080327     48.000000
  0.229507 -0.160655 -0.068852     48.000000
  0.218031 -0.149179 -0.057377     48.000000
  0.206556 -0.137704 -0.045901     48.000000
  0.195081 -0.126229 -0.034426     48.000000
  0.183605 -0.114753 -0.022951     48.000000
  0.172130 -0.103278 -0.011475     48.000000
  0.160655 -0.091803  0.000000     24.000000
  0.000000  0.068852  0.183605     24.000000
 -0.011475  0.080327  0.195081     48.000000
  0.263933 -0.195081 -0.080327     48.000000
  0.252457 -0.183605 -0.068852     48.000000
  0.240982 -0.172130 -0.057377     48.000000
  0.229507 -0.160655 -0.045901     48.000000
  0.218031 -0.149179 -0.034426     48.000000
  0.206556 -0.137704 -0.022951     48.000000
  0.195081 -0.126229 -0.011475     48.000000
  0.183605 -0.114753 -0.000000     24.000000
  0.000000  0.068852  0.206556     24.000000
  0.275408 -0.206556 -0.068852     48.000000
  0.263933 -0.195081 -0.057377     48.000000
  0.252457 -0.183605 -0.045901     48.000000
  0.240982 -0.172130 -0.034426     48.000000
  0.229507 -0.160655 -0.022951     48.000000
  0.218031 -0.149179 -0.011475     48.000000
  0.206556 -0.137704 -0.000000     24.000000
  0.286883 -0.218031 -0.057377     24.000000
  0.275408 -0.206556 -0.045901     48.000000
  0.263933 -0.195081 -0.034426     48.000000
  0.252457 -0.183605 -0.022951     48.000000
  0.240982 -0.172130 -0.011475     48.000000
  0.229507 -0.160655 -0.000000     24.000000
  0.286883 -0.218031 -0.034426     24.000000
  0.275408 -0.206556 -0.022951     48.000000
  0.263933 -0.195081 -0.011475     48.000000
  0.252457 -0.183605 -0.000000     24.000000
  0.286883 -0.218031 -0.011475     24.000000
  0.275408 -0.206556 -0.000000     24.000000
  0.000000  0.091803  0.183605     24.000000
  0.275408 -0.183605 -0.091803     48.000000
  0.263933 -0.172130 -0.080327     48.000000
  0.252457 -0.160655 -0.068852     48.000000
  0.240982 -0.149179 -0.057377     48.000000
  0.286883 -0.195081 -0.080327     24.000000
  0.275408 -0.183605 -0.068852     48.000000
  0.263933 -0.172130 -0.057377     48.000000
  0.252457 -0.160655 -0.045901     48.000000
  0.240982 -0.149179 -0.034426     48.000000
  0.229507 -0.137704 -0.022951     48.000000
  0.218031 -0.126229 -0.011475     48.000000
  0.206556 -0.114753 -0.000000     24.000000
  0.286883 -0.195081 -0.057377     24.000000
  0.275408 -0.183605 -0.045901     48.000000
  0.263933 -0.172130 -0.034426     48.000000
  0.252457 -0.160655 -0.022951     48.000000
  0.240982 -0.149179 -0.011475     48.000000
  0.229507 -0.137704 -0.000000     24.000000
  0.286883 -0.195081 -0.034426     24.000000
  0.275408 -0.183605 -0.022951     48.000000
  0.263933 -0.172130 -0.011475     48.000000
  0.252457 -0.160655 -0.000000     24.000000
  0.286883 -0.195081 -0.011475     24.000000
  0.275408 -0.183605 -0.000000     24.000000
  0.286883 -0.172130 -0.057377     24.000000
  0.275408 -0.160655 -0.045901     48.000000
  0.263933 -0.149179 -0.034426     48.000000
  0.286883 -0.172130 -0.034426     24.000000
  0.275408 -0.160655 -0.022951     48.000000
  0.263933 -0.149179 -0.011475     48.000000
  0.252457 -0.137704 -0.000000     24.000000
  0.286883 -0.172130 -0.011475     24.000000
  0.275408 -0.160655 -0.000000     24.000000
  0.286883 -0.149179 -0.011475     24.000000
 


--------------------------------------------------------------------------------------------------------




 Dimension of arrays:
   k-points           NKPTS =    455   k-points in BZ     NKDIM =    455   number of bands    NBANDS=     16
   number of dos      NEDOS =    301   number of ions     NIONS =      1
   non local maximal  LDIM  =      6   non local SUM 2l+1 LMDIM =     18
   total plane-waves  NPLWV =   5832
   max r-space proj   IRMAX =      1   max aug-charges    IRDMAX=  18051
   dimension x,y,z NGX =    18 NGY =   18 NGZ =   18
   dimension x,y,z NGXF=    36 NGYF=   36 NGZF=   36
   support grid    NGXF=    36 NGYF=   36 NGZF=   36
   ions per type =               1
   NGX,Y,Z   is equivalent  to a cutoff of  12.14, 12.14, 12.14 a.u.
   NGXF,Y,Z  is equivalent  to a cutoff of  24.28, 24.28, 24.28 a.u.

 SYSTEM =  unknown system                          
 POSCAR =  Ni fcc                                  

 Startparameter for this run:
   NWRITE =      2    write-flag & timer
   PREC   = accura    normal or accurate (medium, high low for compatibility)
   ISTART =      0    job   : 0-new  1-cont  2-samecut
   ICHARG =      2    charge: 1-file 2-atom 10-const
   ISPIN  =      1    spin polarized calculation?
   LNONCOLLINEAR =      F non collinear calculations
   LSORBIT =      F    spin-orbit coupling
   INIWAV =      1    electr: 0-lowe 1-rand  2-diag
   LASPH  =      F    aspherical Exc in radial PAW
 Electronic Relaxation 1
   ENCUT  =  500.0 eV  36.75 Ry    6.06 a.u.   4.49  4.49  4.49*2*pi/ulx,y,z
   ENINI  =  500.0     initial cutoff
   ENAUG  =  544.6 eV  augmentation charge cutoff
   NELM   =     60;   NELMIN=  2; NELMDL= -5     # of ELM steps 
   EDIFF  = 0.1E-05   stopping-criterion for ELM
   LREAL  =      F    real-space projection
   NLSPLINE    = F    spline interpolate recip. space projectors
   LCOMPAT=      F    compatible to vasp.4.4
   GGA_COMPAT  = T    GGA compatible to vasp.4.4-vasp.4.6
   LMAXPAW     = -100 max onsite density
   LMAXMIX     =    2 max onsite mixed and CHGCAR
   VOSKOWN=      0    Vosko Wilk Nusair interpolation
   ROPT   =    0.00000
 Ionic relaxation
   EDIFFG = 0.1E-04   stopping-criterion for IOM
   NSW    =      0    number of steps for IOM
   NBLOCK =      1;   KBLOCK =      1    inner block; outer block 
   IBRION =     -1    ionic relax: 0-MD 1-quasi-New 2-CG
   NFREE  =      0    steps in history (QN), initial steepest desc. (CG)
   ISIF   =      2    stress and relaxation
   IWAVPR =     10    prediction:  0-non 1-charg 2-wave 3-comb
   ISYM   =      2    0-nonsym 1-usesym 2-fastsym
   LCORR  =      T    Harris-Foulkes like correction to forces

   POTIM  = 0.5000    time-step for ionic-motion
   TEIN   =    0.0    initial temperature
   TEBEG  =    0.0;   TEEND  =   0.0 temperature during run
   SMASS  =  -3.00    Nose mass-parameter (am)
   estimated Nose-frequenzy (Omega)   =  0.10E-29 period in steps = 0.13E+47 mass=  -0.139E-27a.u.
   SCALEE = 1.0000    scale energy and forces
   NPACO  =    256;   APACO  = 10.0  distance and # of slots for P.C.
   PSTRESS=    0.0 pullay stress

  Mass of Ions in am
   POMASS =  58.69
  Ionic Valenz
   ZVAL   =  10.00
  Atomic Wigner-Seitz radii
   RWIGS  =  -1.00
  virtual crystal weights 
   VCA    =   1.00
   NELECT =      10.0000    total number of electrons
   NUPDOWN=      -1.0000    fix difference up-down

 DOS related values:
   EMIN   =  10.00;   EMAX   =-10.00  energy-range for DOS
   EFERMI =   0.00
   ISMEAR =     0;   SIGMA  =   0.05  broadening in eV -4-tet -1-fermi 0-gaus

 Electronic relaxation 2 (details)
   IALGO  =     38    algorithm
   LDIAG  =      T    sub-space diagonalisation (order eigenvalues)
   LSUBROT=      F    optimize rotation matrix (better conditioning)
   TURBO    =      0    0=normal 1=particle mesh
   IRESTART =      0    0=no restart 2=restart with 2 vectors
   NREBOOT  =      0    no. of reboots
   NMIN     =      0    reboot dimension
   EREF     =   0.00    reference energy to select bands
   IMIX   =      4    mixing-type and parameters
     AMIX     =   0.40;   BMIX     =  1.00
     AMIX_MAG =   1.60;   BMIX_MAG =  1.00
     AMIN     =   0.10
     WC   =   100.;   INIMIX=   1;  MIXPRE=   1;  MAXMIX= -45

 Intra band minimization:
   WEIMIN = 0.0000     energy-eigenvalue tresh-hold
   EBREAK =  0.16E-07  absolut break condition
   DEPER  =   0.30     relativ break condition  

   TIME   =   0.40     timestep for ELM

  volume/ion in A,a.u.               =      10.59        71.45
  Fermi-wavevector in a.u.,A,eV,Ry     =   1.606202  3.035281 35.101452  2.579884
  Thomas-Fermi vector in A             =   2.702427
 
 Write flags
   LWAVE        =      F    write WAVECAR
   LDOWNSAMPLE  =      F    k-point downsampling of WAVECAR
   LCHARG       =      F    write CHGCAR
   LVTOT        =      F    write LOCPOT, total local potential
   LVHAR        =      F    write LOCPOT, Hartree potential only
   LELF         =      F    write electronic localiz. function (ELF)
   LORBIT       =      0    0 simple, 1 ext, 2 COOP (PROOUT), +10 PAW based schemes


 Dipole corrections
   LMONO  =      F    monopole corrections only (constant potential shift)
   LDIPOL =      F    correct potential (dipole corrections)
   IDIPOL =      0    1-x, 2-y, 3-z, 4-all directions 
   EPSILON=  1.0000000 bulk dielectric constant

 Exchange correlation treatment:
   GGA     =    --    GGA type
   LEXCH   =     8    internal setting for exchange type
   LIBXC   =     F    Libxc                    
   VOSKOWN =     0    Vosko Wilk Nusair interpolation
   LHFCALC =     F    Hartree Fock is set to
   LHFONE  =     F    Hartree Fock one center treatment
   AEXX    =    0.0000 exact exchange contribution

 Linear response parameters
   LEPSILON=     F    determine dielectric tensor
   LRPA    =     F    only Hartree local field effects (RPA)
   LNABLA  =     F    use nabla operator in PAW spheres
   LVEL    =     F    velocity operator in full k-point grid
   CSHIFT  =0.1000    complex shift for real part using Kramers Kronig
   OMEGAMAX=  -1.0    maximum frequency
   DEG_THRESHOLD= 0.2000000E-02 threshold for treating states as degnerate
   RTIME   =   -0.100 relaxation time in fs
  (WPLASMAI=    0.000 imaginary part of plasma frequency in eV, 0.658/RTIME)
   DFIELD  = 0.0000000 0.0000000 0.0000000 field for delta impulse in time
 
  Optional k-point grid parameters
   LKPOINTS_OPT  =     F    use optional k-point grid
   KPOINTS_OPT_MODE=     1    mode for optional k-point grid
 
 Orbital magnetization related:
   ORBITALMAG=     F  switch on orbital magnetization
   LCHIMAG   =     F  perturbation theory with respect to B field
   DQ        =  0.001000  dq finite difference perturbation B field
   LLRAUG    =     F  two centre corrections for induced B field



--------------------------------------------------------------------------------------------------------


 Static calculation
 charge density and potential will be updated during run
 non-spin polarized calculation
 Variant of blocked Davidson
 Davidson routine will perform the subspace rotation
 perform sub-space diagonalisation
    after iterative eigenvector-optimisation
 modified Broyden-mixing scheme, WC =      100.0
 initial mixing is a Kerker type mixing with AMIX =  0.4000 and BMIX =      1.0000
 Hartree-type preconditioning will be used
 using additional bands           11
 reciprocal scheme for non local part
 use partial core corrections
 calculate Harris-corrections to forces 
   (improved forces if not selfconsistent)
 use gradient corrections 
 use of overlap-Matrix (Vanderbilt PP)
 Gauss-broadening in eV      SIGMA  =   0.05


--------------------------------------------------------------------------------------------------------


  energy-cutoff  :      500.00
  volume of cell :       10.59
      direct lattice vectors                 reciprocal lattice vectors
     0.000000000  1.742869000  1.742869000    -0.286883294  0.286883294  0.286883294
     1.742869000  0.000000000  1.742869000     0.286883294 -0.286883294  0.286883294
     1.742869000  1.742869000  0.000000000     0.286883294  0.286883294 -0.286883294

  length of vectors
     2.464788977  2.464788977  2.464788977     0.496896441  0.496896441  0.496896441


 
 k-points in units of 2pi/SCALE and weight: K-Spacing Value to Generate K-Mesh: 0.02
   0.00000000  0.00000000  0.00000000       0.000
  -0.01147533  0.01147533  0.01147533       0.001
  -0.02295066  0.02295066  0.02295066       0.001
  -0.03442600  0.03442600  0.03442600       0.001
  -0.04590133  0.04590133  0.04590133       0.001
  -0.05737666  0.05737666  0.05737666       0.001
  -0.06885199  0.06885199  0.06885199       0.001
  -0.08032732  0.08032732  0.08032732       0.001
  -0.09180265  0.09180265  0.09180265       0.001
  -0.10327799  0.10327799  0.10327799       0.001
  -0.11475332  0.11475332  0.11475332       0.001
  -0.12622865  0.12622865  0.12622865       0.001
  -0.13770398  0.13770398  0.13770398       0.001
  -0.00000000  0.00000000  0.02295066       0.000
  -0.01147533  0.01147533  0.03442600       0.002
  -0.02295066  0.02295066  0.04590133       0.002
  -0.03442600  0.03442600  0.05737666       0.002
  -0.04590133  0.04590133  0.06885199       0.002
  -0.05737666  0.05737666  0.08032732       0.002
  -0.06885199  0.06885199  0.09180265       0.002
  -0.08032732  0.08032732  0.10327799       0.002
  -0.09180265  0.09180265  0.11475332       0.002
  -0.10327799  0.10327799  0.12622865       0.002
  -0.11475332  0.11475332  0.13770398       0.002
  -0.12622865  0.12622865  0.14917931       0.002
   0.14917931 -0.14917931 -0.12622865       0.002
   0.13770398 -0.13770398 -0.11475332       0.002
   0.12622865 -0.12622865 -0.10327799       0.002
   0.11475332 -0.11475332 -0.09180265       0.002
   0.10327799 -0.10327799 -0.08032732       0.002
   0.09180265 -0.09180265 -0.06885199       0.002
   0.08032732 -0.08032732 -0.05737666       0.002
   0.06885199 -0.06885199 -0.04590133       0.002
   0.05737666 -0.05737666 -0.03442600       0.002
   0.04590133 -0.04590133 -0.02295066       0.002
   0.03442600 -0.03442600 -0.01147533       0.002
   0.02295066 -0.02295066 -0.00000000       0.001
  -0.00000000  0.00000000  0.04590133       0.000
  -0.01147533  0.01147533  0.05737666       0.002
  -0.02295066  0.02295066  0.06885199       0.002
  -0.03442600  0.03442600  0.08032732       0.002
  -0.04590133  0.04590133  0.09180265       0.002
  -0.05737666  0.05737666  0.10327799       0.002
  -0.06885199  0.06885199  0.11475332       0.002
  -0.08032732  0.08032732  0.12622865       0.002
  -0.09180265  0.09180265  0.13770398       0.002
  -0.10327799  0.10327799  0.14917931       0.002
  -0.11475332  0.11475332  0.16065464       0.002
   0.16065464 -0.16065464 -0.11475332       0.002
   0.14917931 -0.14917931 -0.10327799       0.002
   0.13770398 -0.13770398 -0.09180265       0.002
   0.12622865 -0.12622865 -0.08032732       0.002
   0.11475332 -0.11475332 -0.06885199       0.002
   0.10327799 -0.10327799 -0.05737666       0.002
   0.09180265 -0.09180265 -0.04590133       0.002
   0.08032732 -0.08032732 -0.03442600       0.002
   0.06885199 -0.06885199 -0.02295066       0.002
   0.05737666 -0.05737666 -0.01147533       0.002
   0.04590133 -0.04590133  0.00000000       0.001
  -0.00000000 -0.00000000  0.06885199       0.000
  -0.01147533  0.01147533  0.08032732       0.002
  -0.02295066  0.02295066  0.09180265       0.002
  -0.03442600  0.03442600  0.10327799       0.002
  -0.04590133  0.04590133  0.11475332       0.002
  -0.05737666  0.05737666  0.12622865       0.002
  -0.06885199  0.06885199  0.13770398       0.002
  -0.08032732  0.08032732  0.14917931       0.002
  -0.09180265  0.09180265  0.16065464       0.002
  -0.10327799  0.10327799  0.17212998       0.002
   0.17212998 -0.17212998 -0.10327799       0.002
   0.16065464 -0.16065464 -0.09180265       0.002
   0.14917931 -0.14917931 -0.08032732       0.002
   0.13770398 -0.13770398 -0.06885199       0.002
   0.12622865 -0.12622865 -0.05737666       0.002
   0.11475332 -0.11475332 -0.04590133       0.002
   0.10327799 -0.10327799 -0.03442600       0.002
   0.09180265 -0.09180265 -0.02295066       0.002
   0.08032732 -0.08032732 -0.01147533       0.002
   0.06885199 -0.06885199  0.00000000       0.001
  -0.00000000  0.00000000  0.09180265       0.000
  -0.01147533  0.01147533  0.10327799       0.002
  -0.02295066  0.02295066  0.11475332       0.002
  -0.03442600  0.03442600  0.12622865       0.002
  -0.04590133  0.04590133  0.13770398       0.002
  -0.05737666  0.05737666  0.14917931       0.002
  -0.06885199  0.06885199  0.16065464       0.002
  -0.08032732  0.08032732  0.17212998       0.002
  -0.09180265  0.09180265  0.18360531       0.002
   0.18360531 -0.18360531 -0.09180265       0.002
   0.17212998 -0.17212998 -0.08032732       0.002
   0.16065464 -0.16065464 -0.06885199       0.002
   0.14917931 -0.14917931 -0.05737666       0.002
   0.13770398 -0.13770398 -0.04590133       0.002
   0.12622865 -0.12622865 -0.03442600       0.002
   0.11475332 -0.11475332 -0.02295066       0.002
   0.10327799 -0.10327799 -0.01147533       0.002
   0.09180265 -0.09180265  0.00000000       0.001
  -0.00000000 -0.00000000  0.11475332       0.000
  -0.01147533  0.01147533  0.12622865       0.002
  -0.02295066  0.02295066  0.13770398       0.002
  -0.03442600  0.03442600  0.14917931       0.002
  -0.04590133  0.04590133  0.16065464       0.002
  -0.05737666  0.05737666  0.17212998       0.002
  -0.06885199  0.06885199  0.18360531       0.002
  -0.08032732  0.08032732  0.19508064       0.002
   0.19508064 -0.19508064 -0.08032732       0.002
   0.18360531 -0.18360531 -0.06885199       0.002
   0.17212998 -0.17212998 -0.05737666       0.002
   0.16065464 -0.16065464 -0.04590133       0.002
   0.14917931 -0.14917931 -0.03442600       0.002
   0.13770398 -0.13770398 -0.02295066       0.002
   0.12622865 -0.12622865 -0.01147533       0.002
   0.11475332 -0.11475332  0.00000000       0.001
   0.00000000 -0.00000000  0.13770398       0.000
  -0.01147533  0.01147533  0.14917931       0.002
  -0.02295066  0.02295066  0.16065464       0.002
  -0.03442600  0.03442600  0.17212998       0.002
  -0.04590133  0.04590133  0.18360531       0.002
  -0.05737666  0.05737666  0.19508064       0.002
  -0.06885199  0.06885199  0.20655597       0.002
   0.20655597 -0.20655597 -0.06885199       0.002
   0.19508064 -0.19508064 -0.05737666       0.002
   0.18360531 -0.18360531 -0.04590133       0.002
   0.17212998 -0.17212998 -0.03442600       0.002
   0.16065464 -0.16065464 -0.02295066       0.002
   0.14917931 -0.14917931 -0.01147533       0.002
   0.13770398 -0.13770398  0.00000000       0.001
   0.00000000 -0.00000000  0.16065464       0.000
  -0.01147533  0.01147533  0.17212998       0.002
  -0.02295066  0.02295066  0.18360531       0.002
  -0.03442600  0.03442600  0.19508064       0.002
  -0.04590133  0.04590133  0.20655597       0.002
  -0.05737666  0.05737666  0.21803130       0.002
   0.21803130 -0.21803130 -0.05737666       0.002
   0.20655597 -0.20655597 -0.04590133       0.002
   0.19508064 -0.19508064 -0.03442600       0.002
   0.18360531 -0.18360531 -0.02295066       0.002
   0.17212998 -0.17212998 -0.01147533       0.002
   0.16065464 -0.16065464  0.00000000       0.001
  -0.00000000  0.00000000  0.18360531       0.000
  -0.01147533  0.01147533  0.19508064       0.002
  -0.02295066  0.02295066  0.20655597       0.002
  -0.03442600  0.03442600  0.21803130       0.002
  -0.04590133  0.04590133  0.22950664       0.002
   0.22950664 -0.22950664 -0.04590133       0.002
   0.21803130 -0.21803130 -0.03442600       0.002
   0.20655597 -0.20655597 -0.02295066       0.002
   0.19508064 -0.19508064 -0.01147533       0.002
   0.18360531 -0.18360531  0.00000000       0.001
  -0.00000000  0.00000000  0.20655597       0.000
  -0.01147533  0.01147533  0.21803130       0.002
  -0.02295066  0.02295066  0.22950664       0.002
  -0.03442600  0.03442600  0.24098197       0.002
   0.24098197 -0.24098197 -0.03442600       0.002
   0.22950664 -0.22950664 -0.02295066       0.002
   0.21803130 -0.21803130 -0.01147533       0.002
   0.20655597 -0.20655597  0.00000000       0.001
  -0.00000000 -0.00000000  0.22950664       0.000
  -0.01147533  0.01147533  0.24098197       0.002
  -0.02295066  0.02295066  0.25245730       0.002
   0.25245730 -0.25245730 -0.02295066       0.002
   0.24098197 -0.24098197 -0.01147533       0.002
   0.22950664 -0.22950664  0.00000000       0.001
  -0.00000000  0.00000000  0.25245730       0.000
  -0.01147533  0.01147533  0.26393263       0.002
   0.26393263 -0.26393263 -0.01147533       0.002
   0.25245730 -0.25245730  0.00000000       0.001
  -0.00000000 -0.00000000  0.27540796       0.000
   0.27540796 -0.27540796 -0.00000000       0.001
   0.00000000  0.02295066  0.04590133       0.002
  -0.01147533  0.03442600  0.05737666       0.003
  -0.02295066  0.04590133  0.06885199       0.003
  -0.03442600  0.05737666  0.08032732       0.003
  -0.04590133  0.06885199  0.09180265       0.003
  -0.05737666  0.08032732  0.10327799       0.003
  -0.06885199  0.09180265  0.11475332       0.003
  -0.08032732  0.10327799  0.12622865       0.003
  -0.09180265  0.11475332  0.13770398       0.003
  -0.10327799  0.12622865  0.14917931       0.003
   0.17212998 -0.14917931 -0.12622865       0.003
   0.00000000  0.02295066  0.06885199       0.002
  -0.01147533  0.03442600  0.08032732       0.003
  -0.02295066  0.04590133  0.09180265       0.003
  -0.03442600  0.05737666  0.10327799       0.003
  -0.04590133  0.06885199  0.11475332       0.003
  -0.05737666  0.08032732  0.12622865       0.003
  -0.06885199  0.09180265  0.13770398       0.003
  -0.08032732  0.10327799  0.14917931       0.003
  -0.09180265  0.11475332  0.16065464       0.003
   0.18360531 -0.16065464 -0.11475332       0.003
   0.17212998 -0.14917931 -0.10327799       0.003
   0.16065464 -0.13770398 -0.09180265       0.003
   0.14917931 -0.12622865 -0.08032732       0.003
   0.13770398 -0.11475332 -0.06885199       0.003
   0.12622865 -0.10327799 -0.05737666       0.003
   0.11475332 -0.09180265 -0.04590133       0.003
   0.10327799 -0.08032732 -0.03442600       0.003
   0.09180265 -0.06885199 -0.02295066       0.003
   0.08032732 -0.05737666 -0.01147533       0.003
   0.06885199 -0.04590133 -0.00000000       0.002
  -0.00000000  0.02295066  0.09180265       0.002
  -0.01147533  0.03442600  0.10327799       0.003
  -0.02295066  0.04590133  0.11475332       0.003
  -0.03442600  0.05737666  0.12622865       0.003
  -0.04590133  0.06885199  0.13770398       0.003
  -0.05737666  0.08032732  0.14917931       0.003
  -0.06885199  0.09180265  0.16065464       0.003
  -0.08032732  0.10327799  0.17212998       0.003
   0.19508064 -0.17212998 -0.10327799       0.003
   0.18360531 -0.16065464 -0.09180265       0.003
   0.17212998 -0.14917931 -0.08032732       0.003
   0.16065464 -0.13770398 -0.06885199       0.003
   0.14917931 -0.12622865 -0.05737666       0.003
   0.13770398 -0.11475332 -0.04590133       0.003
   0.12622865 -0.10327799 -0.03442600       0.003
   0.11475332 -0.09180265 -0.02295066       0.003
   0.10327799 -0.08032732 -0.01147533       0.003
   0.09180265 -0.06885199 -0.00000000       0.002
   0.00000000  0.02295066  0.11475332       0.002
  -0.01147533  0.03442600  0.12622865       0.003
  -0.02295066  0.04590133  0.13770398       0.003
  -0.03442600  0.05737666  0.14917931       0.003
  -0.04590133  0.06885199  0.16065464       0.003
  -0.05737666  0.08032732  0.17212998       0.003
  -0.06885199  0.09180265  0.18360531       0.003
   0.20655597 -0.18360531 -0.09180265       0.003
   0.19508064 -0.17212998 -0.08032732       0.003
   0.18360531 -0.16065464 -0.06885199       0.003
   0.17212998 -0.14917931 -0.05737666       0.003
   0.16065464 -0.13770398 -0.04590133       0.003
   0.14917931 -0.12622865 -0.03442600       0.003
   0.13770398 -0.11475332 -0.02295066       0.003
   0.12622865 -0.10327799 -0.01147533       0.003
   0.11475332 -0.09180265  0.00000000       0.002
   0.00000000  0.02295066  0.13770398       0.002
  -0.01147533  0.03442600  0.14917931       0.003
  -0.02295066  0.04590133  0.16065464       0.003
  -0.03442600  0.05737666  0.17212998       0.003
  -0.04590133  0.06885199  0.18360531       0.003
  -0.05737666  0.08032732  0.19508064       0.003
   0.21803130 -0.19508064 -0.08032732       0.003
   0.20655597 -0.18360531 -0.06885199       0.003
   0.19508064 -0.17212998 -0.05737666       0.003
   0.18360531 -0.16065464 -0.04590133       0.003
   0.17212998 -0.14917931 -0.03442600       0.003
   0.16065464 -0.13770398 -0.02295066       0.003
   0.14917931 -0.12622865 -0.01147533       0.003
   0.13770398 -0.11475332 -0.00000000       0.002
   0.00000000  0.02295066  0.16065464       0.002
  -0.01147533  0.03442600  0.17212998       0.003
  -0.02295066  0.04590133  0.18360531       0.003
  -0.03442600  0.05737666  0.19508064       0.003
  -0.04590133  0.06885199  0.20655597       0.003
   0.22950664 -0.20655597 -0.06885199       0.003
   0.21803130 -0.19508064 -0.05737666       0.003
   0.20655597 -0.18360531 -0.04590133       0.003
   0.19508064 -0.17212998 -0.03442600       0.003
   0.18360531 -0.16065464 -0.02295066       0.003
   0.17212998 -0.14917931 -0.01147533       0.003
   0.16065464 -0.13770398 -0.00000000       0.002
   0.00000000  0.02295066  0.18360531       0.002
  -0.01147533  0.03442600  0.19508064       0.003
  -0.02295066  0.04590133  0.20655597       0.003
  -0.03442600  0.05737666  0.21803130       0.003
   0.24098197 -0.21803130 -0.05737666       0.003
   0.22950664 -0.20655597 -0.04590133       0.003
   0.21803130 -0.19508064 -0.03442600       0.003
   0.20655597 -0.18360531 -0.02295066       0.003
   0.19508064 -0.17212998 -0.01147533       0.003
   0.18360531 -0.16065464 -0.00000000       0.002
   0.00000000  0.02295066  0.20655597       0.002
  -0.01147533  0.03442600  0.21803130       0.003
  -0.02295066  0.04590133  0.22950664       0.003
   0.25245730 -0.22950664 -0.04590133       0.003
   0.24098197 -0.21803130 -0.03442600       0.003
   0.22950664 -0.20655597 -0.02295066       0.003
   0.21803130 -0.19508064 -0.01147533       0.003
   0.20655597 -0.18360531 -0.00000000       0.002
   0.00000000  0.02295066  0.22950664       0.002
  -0.01147533  0.03442600  0.24098197       0.003
   0.26393263 -0.24098197 -0.03442600       0.003
   0.25245730 -0.22950664 -0.02295066       0.003
   0.24098197 -0.21803130 -0.01147533       0.003
   0.22950664 -0.20655597 -0.00000000       0.002
   0.00000000  0.02295066  0.25245730       0.002
   0.27540796 -0.25245730 -0.02295066       0.003
   0.26393263 -0.24098197 -0.01147533       0.003
   0.25245730 -0.22950664 -0.00000000       0.002
   0.28688329 -0.26393263 -0.01147533       0.002
   0.27540796 -0.25245730 -0.00000000       0.002
  -0.00000000  0.04590133  0.09180265       0.002
  -0.01147533  0.05737666  0.10327799       0.003
  -0.02295066  0.06885199  0.11475332       0.003
  -0.03442600  0.08032732  0.12622865       0.003
  -0.04590133  0.09180265  0.13770398       0.003
  -0.05737666  0.10327799  0.14917931       0.003
  -0.06885199  0.11475332  0.16065464       0.003
   0.20655597 -0.16065464 -0.11475332       0.003
   0.19508064 -0.14917931 -0.10327799       0.003
   0.00000000  0.04590133  0.11475332       0.002
  -0.01147533  0.05737666  0.12622865       0.003
  -0.02295066  0.06885199  0.13770398       0.003
  -0.03442600  0.08032732  0.14917931       0.003
  -0.04590133  0.09180265  0.16065464       0.003
  -0.05737666  0.10327799  0.17212998       0.003
   0.21803130 -0.17212998 -0.10327799       0.003
   0.20655597 -0.16065464 -0.09180265       0.003
   0.19508064 -0.14917931 -0.08032732       0.003
   0.18360531 -0.13770398 -0.06885199       0.003
   0.17212998 -0.12622865 -0.05737666       0.003
   0.16065464 -0.11475332 -0.04590133       0.003
   0.14917931 -0.10327799 -0.03442600       0.003
   0.13770398 -0.09180265 -0.02295066       0.003
   0.12622865 -0.08032732 -0.01147533       0.003
   0.11475332 -0.06885199  0.00000000       0.002
   0.00000000  0.04590133  0.13770398       0.002
  -0.01147533  0.05737666  0.14917931       0.003
  -0.02295066  0.06885199  0.16065464       0.003
  -0.03442600  0.08032732  0.17212998       0.003
  -0.04590133  0.09180265  0.18360531       0.003
   0.22950664 -0.18360531 -0.09180265       0.003
   0.21803130 -0.17212998 -0.08032732       0.003
   0.20655597 -0.16065464 -0.06885199       0.003
   0.19508064 -0.14917931 -0.05737666       0.003
   0.18360531 -0.13770398 -0.04590133       0.003
   0.17212998 -0.12622865 -0.03442600       0.003
   0.16065464 -0.11475332 -0.02295066       0.003
   0.14917931 -0.10327799 -0.01147533       0.003
   0.13770398 -0.09180265  0.00000000       0.002
   0.00000000  0.04590133  0.16065464       0.002
  -0.01147533  0.05737666  0.17212998       0.003
  -0.02295066  0.06885199  0.18360531       0.003
  -0.03442600  0.08032732  0.19508064       0.003
   0.24098197 -0.19508064 -0.08032732       0.003
   0.22950664 -0.18360531 -0.06885199       0.003
   0.21803130 -0.17212998 -0.05737666       0.003
   0.20655597 -0.16065464 -0.04590133       0.003
   0.19508064 -0.14917931 -0.03442600       0.003
   0.18360531 -0.13770398 -0.02295066       0.003
   0.17212998 -0.12622865 -0.01147533       0.003
   0.16065464 -0.11475332 -0.00000000       0.002
   0.00000000  0.04590133  0.18360531       0.002
  -0.01147533  0.05737666  0.19508064       0.003
  -0.02295066  0.06885199  0.20655597       0.003
   0.25245730 -0.20655597 -0.06885199       0.003
   0.24098197 -0.19508064 -0.05737666       0.003
   0.22950664 -0.18360531 -0.04590133       0.003
   0.21803130 -0.17212998 -0.03442600       0.003
   0.20655597 -0.16065464 -0.02295066       0.003
   0.19508064 -0.14917931 -0.01147533       0.003
   0.18360531 -0.13770398 -0.00000000       0.002
   0.00000000  0.04590133  0.20655597       0.002
  -0.01147533  0.05737666  0.21803130       0.003
   0.26393263 -0.21803130 -0.05737666       0.003
   0.25245730 -0.20655597 -0.04590133       0.003
   0.24098197 -0.19508064 -0.03442600       0.003
   0.22950664 -0.18360531 -0.02295066       0.003
   0.21803130 -0.17212998 -0.01147533       0.003
   0.20655597 -0.16065464 -0.00000000       0.002
   0.00000000  0.04590133  0.22950664       0.002
   0.27540796 -0.22950664 -0.04590133       0.003
   0.26393263 -0.21803130 -0.03442600       0.003
   0.25245730 -0.20655597 -0.02295066       0.003
   0.24098197 -0.19508064 -0.01147533       0.003
   0.22950664 -0.18360531 -0.00000000       0.002
   0.28688329 -0.24098197 -0.03442600       0.002
   0.27540796 -0.22950664 -0.02295066       0.003
   0.26393263 -0.21803130 -0.01147533       0.003
   0.25245730 -0.20655597 -0.00000000       0.002
   0.28688329 -0.24098197 -0.01147533       0.002
   0.27540796 -0.22950664 -0.00000000       0.002
   0.00000000  0.06885199  0.13770398       0.002
  -0.01147533  0.08032732  0.14917931       0.003
  -0.02295066  0.09180265  0.16065464       0.003
  -0.03442600  0.10327799  0.17212998       0.003
   0.24098197 -0.17212998 -0.10327799       0.003
   0.22950664 -0.16065464 -0.09180265       0.003
   0.21803130 -0.14917931 -0.08032732       0.003
   0.00000000  0.06885199  0.16065464       0.002
  -0.01147533  0.08032732  0.17212998       0.003
  -0.02295066  0.09180265  0.18360531       0.003
   0.25245730 -0.18360531 -0.09180265       0.003
   0.24098197 -0.17212998 -0.08032732       0.003
   0.22950664 -0.16065464 -0.06885199       0.003
   0.21803130 -0.14917931 -0.05737666       0.003
   0.20655597 -0.13770398 -0.04590133       0.003
   0.19508064 -0.12622865 -0.03442600       0.003
   0.18360531 -0.11475332 -0.02295066       0.003
   0.17212998 -0.10327799 -0.01147533       0.003
   0.16065464 -0.09180265  0.00000000       0.002
   0.00000000  0.06885199  0.18360531       0.002
  -0.01147533  0.08032732  0.19508064       0.003
   0.26393263 -0.19508064 -0.08032732       0.003
   0.25245730 -0.18360531 -0.06885199       0.003
   0.24098197 -0.17212998 -0.05737666       0.003
   0.22950664 -0.16065464 -0.04590133       0.003
   0.21803130 -0.14917931 -0.03442600       0.003
   0.20655597 -0.13770398 -0.02295066       0.003
   0.19508064 -0.12622865 -0.01147533       0.003
   0.18360531 -0.11475332 -0.00000000       0.002
   0.00000000  0.06885199  0.20655597       0.002
   0.27540796 -0.20655597 -0.06885199       0.003
   0.26393263 -0.19508064 -0.05737666       0.003
   0.25245730 -0.18360531 -0.04590133       0.003
   0.24098197 -0.17212998 -0.03442600       0.003
   0.22950664 -0.16065464 -0.02295066       0.003
   0.21803130 -0.14917931 -0.01147533       0.003
   0.20655597 -0.13770398 -0.00000000       0.002
[...]
     15      56.7269      0.00000
     16      59.0728      0.00000

 k-point   439 :      -0.2400    0.4000    0.1600
  band No.  band energies     occupation 
      1       6.2633      2.00000
      2       6.7856      2.00000
      3       6.8548      2.00000
      4       8.7067      2.00000
      5       9.4763      1.98545
      6      14.5117      0.00000
      7      18.7692      0.00000
      8      21.1298      0.00000
      9      24.4157      0.00000
     10      38.3021      0.00000
     11      40.5202      0.00000
     12      45.3555      0.00000
     13      49.8390      0.00000
     14      53.4496      0.00000
     15      56.6212      0.00000
     16      58.3367      0.00000

 k-point   440 :      -0.4000    0.4400    0.1600
  band No.  band energies     occupation 
      1       5.7894      2.00000
      2       6.2574      2.00000
      3       7.7741      2.00000
      4       9.0355      2.00000
      5       9.6460      0.01847
      6      14.0196      0.00000
      7      20.8700      0.00000
      8      21.1099      0.00000
      9      22.5096      0.00000
     10      35.7784      0.00000
     11      39.2407      0.00000
     12      45.8573      0.00000
     13      53.2320      0.00000
     14      57.0717      0.00000
     15      57.7053      0.00000
     16      58.2532      0.00000

 k-point   441 :      -0.3600    0.4400    0.1600
  band No.  band energies     occupation 
      1       5.8962      2.00000
      2       6.3576      2.00000
      3       7.6073      2.00000
      4       8.9226      2.00000
      5       9.6928      0.00023
      6      15.0915      0.00000
      7      19.6404      0.00000
      8      20.6663      0.00000
      9      22.3599      0.00000
     10      36.5530      0.00000
     11      40.5056      0.00000
     12      44.9609      0.00000
     13      51.4889      0.00000
     14      56.9547      0.00000
     15      57.5129      0.00000
     16      59.6785      0.00000

 k-point   442 :      -0.3200    0.4400    0.1600
  band No.  band energies     occupation 
      1       6.0083      2.00000
      2       6.4753      2.00000
      3       7.4149      2.00000
      4       8.8206      2.00000
      5       9.6911      0.00028
      6      16.1790      0.00000
      7      18.2555      0.00000
      8      20.3686      0.00000
      9      22.6475      0.00000
     10      37.0800      0.00000
     11      42.1607      0.00000
     12      43.9634      0.00000
     13      49.9769      0.00000
     14      56.7291      0.00000
     15      56.9527      0.00000
     16      60.5809      0.00000

 k-point   443 :      -0.2800    0.4400    0.1600
  band No.  band energies     occupation 
      1       6.1231      2.00000
      2       6.5938      2.00000
      3       7.2069      2.00000
      4       8.7478      2.00000
      5       9.6430      0.02308
      6      16.9153      0.00000
      7      17.1287      0.00000
      8      20.4011      0.00000
      9      23.1366      0.00000
     10      37.5170      0.00000
     11      42.7355      0.00000
     12      44.0153      0.00000
     13      48.9226      0.00000
     14      55.7396      0.00000
     15      56.8331      0.00000
     16      60.0907      0.00000

 k-point   444 :      -0.3600    0.4800    0.1600
  band No.  band energies     occupation 
      1       5.7577      2.00000
      2       6.2197      2.00000
      3       7.9061      2.00000
      4       9.0259      2.00000
      5       9.7379      0.00000
      6      14.9925      0.00000
      7      19.8816      0.00000
      8      20.6506      0.00000
      9      22.2563      0.00000
     10      35.6625      0.00000
     11      39.2507      0.00000
     12      46.4438      0.00000
     13      52.3899      0.00000
     14      57.0740      0.00000
     15      58.4582      0.00000
     16      60.4254      0.00000

 k-point   445 :      -0.3200    0.4800    0.1600
  band No.  band energies     occupation 
      1       5.8747      2.00000
      2       6.3418      2.00000
      3       7.6693      2.00000
      4       8.9176      2.00000
      5       9.7371      0.00000
      6      15.7360      0.00000
      7      19.4039      0.00000
      8      20.0191      0.00000
      9      22.2454      0.00000
     10      36.4989      0.00000
     11      40.5724      0.00000
     12      45.2050      0.00000
     13      51.0185      0.00000
     14      56.9984      0.00000
     15      58.0477      0.00000
     16      61.7150      0.00000

 k-point   446 :      -0.4000    0.4000    0.2000
  band No.  band energies     occupation 
      1       6.0839      2.00000
      2       6.5671      2.00000
      3       7.1432      2.00000
      4       8.8296      2.00000
      5       9.4756      1.98618
      6      13.6425      0.00000
      7      20.0019      0.00000
      8      21.7313      0.00000
      9      23.8258      0.00000
     10      38.1895      0.00000
     11      39.9120      0.00000
     12      43.9967      0.00000
     13      52.1654      0.00000
     14      54.2064      0.00000
     15      56.7747      0.00000
     16      58.0500      0.00000

 k-point   447 :      -0.3600    0.4000    0.2000
  band No.  band energies     occupation 
      1       6.1555      2.00000
      2       6.6608      2.00000
      3       7.0541      2.00000
      4       8.7581      2.00000
      5       9.5649      0.95109
      6      14.7485      0.00000
      7      18.8234      0.00000
      8      21.5608      0.00000
      9      23.1510      0.00000
     10      38.8086      0.00000
     11      40.2267      0.00000
     12      44.3535      0.00000
     13      50.2389      0.00000
     14      54.9983      0.00000
     15      56.7717      0.00000
     16      58.6654      0.00000

 k-point   448 :      -0.3200    0.4000    0.2000
  band No.  band energies     occupation 
      1       6.1912      2.00000
      2       6.7102      2.00000
      3       7.0140      2.00000
      4       8.7087      2.00000
      5       9.6154      0.13602
      6      15.9092      0.00000
      7      17.5217      0.00000
      8      21.7131      0.00000
      9      22.6800      0.00000
     10      38.9394      0.00000
     11      40.5713      0.00000
     12      44.9843      0.00000
     13      48.7954      0.00000
     14      55.3558      0.00000
     15      56.7591      0.00000
     16      59.0861      0.00000

 k-point   449 :      -0.3600    0.4400    0.2000
  band No.  band energies     occupation 
      1       6.0183      2.00000
      2       6.5156      2.00000
      3       7.3138      2.00000
      4       8.8419      2.00000
      5       9.6448      0.02014
      6      14.9418      0.00000
      7      19.5693      0.00000
      8      21.1430      0.00000
      9      22.1704      0.00000
     10      37.9458      0.00000
     11      40.7630      0.00000
     12      43.9009      0.00000
     13      50.7641      0.00000
     14      56.9041      0.00000
     15      57.0663      0.00000
     16      58.8169      0.00000

 k-point   450 :      -0.3200    0.4400    0.2000
  band No.  band energies     occupation 
      1       6.0761      2.00000
      2       6.6449      2.00000
      3       7.1689      2.00000
      4       8.7650      2.00000
      5       9.6918      0.00026
      6      16.0951      0.00000
      7      18.4818      0.00000
      8      20.8373      0.00000
      9      21.8616      0.00000
     10      38.7598      0.00000
     11      41.3811      0.00000
     12      43.6014      0.00000
     13      49.1694      0.00000
     14      56.8971      0.00000
     15      57.5714      0.00000
     16      59.6085      0.00000

 k-point   451 :      -0.2800    0.4400    0.2000
  band No.  band energies     occupation 
      1       6.1217      2.00000
      2       6.7772      2.00000
      3       7.0110      2.00000
      4       8.7238      2.00000
      5       9.6913      0.00028
      6      17.0298      0.00000
      7      17.4395      0.00000
      8      20.6760      0.00000
      9      22.0262      0.00000
     10      39.2822      0.00000
     11      41.2318      0.00000
     12      43.9860      0.00000
     13      48.2951      0.00000
     14      56.8778      0.00000
     15      57.2593      0.00000
     16      59.9884      0.00000

 k-point   452 :      -0.2400    0.4400    0.2000
  band No.  band energies     occupation 
      1       6.1514      2.00000
      2       6.8327      2.00000
      3       6.9174      2.00000
      4       8.7278      2.00000
      5       9.6437      0.02192
      6      15.9052      0.00000
      7      18.3180      0.00000
      8      20.7885      0.00000
      9      22.4973      0.00000
     10      39.6950      0.00000
     11      40.2679      0.00000
     12      44.3666      0.00000
     13      48.7073      0.00000
     14      56.3853      0.00000
     15      56.8454      0.00000
     16      59.4747      0.00000

 k-point   453 :      -0.3200    0.4800    0.2000
  band No.  band energies     occupation 
      1       5.9692      2.00000
      2       6.4886      2.00000
      3       7.4225      2.00000
      4       8.8335      2.00000
      5       9.7379      0.00000
      6      16.0604      0.00000
      7      19.3445      0.00000
      8      20.0832      0.00000
      9      21.6449      0.00000
     10      37.8238      0.00000
     11      41.2971      0.00000
     12      43.8741      0.00000
     13      49.9192      0.00000
     14      56.9672      0.00000
     15      59.1325      0.00000
     16      59.9578      0.00000

 k-point   454 :      -0.2800    0.4800    0.2000
  band No.  band energies     occupation 
      1       6.0452      2.00000
      2       6.6383      2.00000
      3       7.2147      2.00000
      4       8.7626      2.00000
      5       9.7375      0.00000
      6      16.8763      0.00000
      7      18.3348      0.00000
      8      20.0954      0.00000
      9      21.6321      0.00000
     10      38.7224      0.00000
     11      42.5530      0.00000
     12      42.6055      0.00000
     13      48.7891      0.00000
     14      56.9412      0.00000
     15      58.6733      0.00000
     16      60.8658      0.00000

 k-point   455 :      -0.2800    0.4800    0.2400
  band No.  band energies     occupation 
      1       6.0833      2.00000
      2       6.8203      2.00000
      3       6.9985      2.00000
      4       8.7282      2.00000
      5       9.7378      0.00000
      6      17.1814      0.00000
      7      18.0824      0.00000
      8      20.2036      0.00000
      9      21.3784      0.00000
     10      40.1413      0.00000
     11      41.0221      0.00000
     12      43.1982      0.00000
     13      48.1788      0.00000
     14      56.9331      0.00000
     15      59.3435      0.00000
     16      59.9561      0.00000


--------------------------------------------------------------------------------------------------------


 soft charge-density along one line, spin component           1
         0         1         2         3         4         5         6         7         8         9
 total charge-density along one line
 
 pseudopotential strength for first ion, spin component:           1
 -0.016  -0.000  -0.000  -0.000  -0.000  -0.718  -0.000  -0.000
 -0.000  -0.016   0.000  -0.000  -0.000  -0.000  -0.718   0.000
 -0.000   0.000   0.028   0.000   0.000  -0.000   0.000  -0.677
 -0.000  -0.000   0.000  -0.016   0.000  -0.000  -0.000   0.000
 -0.000  -0.000   0.000   0.000   0.028  -0.000  -0.000   0.000
 -0.718  -0.000  -0.000  -0.000  -0.000  -1.348  -0.000  -0.000
 -0.000  -0.718   0.000  -0.000  -0.000  -0.000  -1.348   0.000
 -0.000   0.000  -0.677   0.000   0.000  -0.000   0.000  -1.309
 -0.000  -0.000   0.000  -0.718   0.000  -0.000  -0.000   0.000
 -0.000  -0.000   0.000   0.000  -0.677  -0.000  -0.000   0.000
 -0.000  -0.000   0.000  -0.000  -0.000  -0.000  -0.000   0.000
 -0.000  -0.000   0.000  -0.000  -0.000  -0.000  -0.000   0.000
 -0.000  -0.000   0.000  -0.000   0.000  -0.000  -0.000  -0.000
  0.000   0.000  -0.000  -0.000   0.000   0.000   0.000  -0.000
 -0.000  -0.000   0.000  -0.000  -0.000   0.000  -0.000   0.000
 -0.000   0.000  -0.000   0.000   0.000  -0.000  -0.000   0.000
 -0.000   0.000  -0.000  -0.000   0.000  -0.000   0.000  -0.000
  0.000   0.000   0.000  -0.000  -0.000  -0.000   0.000  -0.000
 total augmentation occupancy for first ion, spin component:           1
  2.683   0.000   0.000   0.000  -0.000  -1.246   0.000   0.000  -0.000   0.000   0.000   0.000   0.000   0.000   0.000   0.000
  0.000   2.683  -0.000  -0.000  -0.000   0.000  -1.246   0.000   0.000   0.000  -0.000   0.000   0.000   0.000   0.000   0.000
  0.000  -0.000   3.547  -0.000  -0.000   0.000  -0.000  -1.656   0.000   0.000  -0.000   0.000   0.000   0.000   0.000   0.000
  0.000  -0.000   0.000   2.683   0.000  -0.000   0.000  -0.000  -1.246   0.000   0.000  -0.000   0.000   0.000   0.000   0.000
  0.000  -0.000  -0.000   0.000   3.547  -0.000   0.000   0.000   0.000  -1.656   0.000   0.000   0.000   0.000   0.000   0.000
 -1.246  -0.000  -0.000  -0.000  -0.000   1.520  -0.000   0.000   0.000   0.000   0.000   0.000   0.000   0.000   0.000   0.000
  0.000  -1.246  -0.000   0.000  -0.000  -0.000   1.520   0.000  -0.000  -0.000   0.000   0.000   0.000   0.000   0.000   0.000
  0.000   0.000  -1.656  -0.000  -0.000   0.000   0.000   1.598  -0.000  -0.000   0.000  -0.000   0.000   0.000   0.000   0.000
 -0.000   0.000   0.000  -1.246   0.000   0.000  -0.000  -0.000   1.520  -0.000   0.000   0.000   0.000   0.000   0.000   0.000
  0.000   0.000   0.000  -0.000  -1.656  -0.000  -0.000   0.000  -0.000   1.598   0.000   0.000   0.000   0.000   0.000   0.000
  0.000  -0.000  -0.000   0.000   0.000   0.000   0.000   0.000   0.000   0.000   2.379  -0.339   0.000   0.000   0.000   0.000
 -0.000   0.000   0.000  -0.000   0.000  -0.000   0.000  -0.000   0.000   0.000  -0.339   0.055   0.000   0.000   0.000   0.000
  0.000   0.000   0.000   0.000   0.000   0.000   0.000   0.000   0.000   0.000   0.000   0.000   0.318   0.000  -0.000  -0.035
  0.000   0.000   0.000   0.000   0.000   0.000   0.000   0.000   0.000   0.000   0.000   0.000   0.000   0.318   0.000   0.000
  0.000   0.000   0.000   0.000   0.000   0.000   0.000   0.000   0.000   0.000   0.000   0.000  -0.000  -0.000   0.318  -0.000
  0.000   0.000   0.000   0.000   0.000   0.000   0.000   0.000   0.000   0.000   0.000   0.000  -0.035   0.000   0.000   0.004
  0.000   0.000   0.000   0.000   0.000   0.000   0.000   0.000   0.000   0.000   0.000   0.000  -0.000  -0.035   0.000  -0.000
  0.000   0.000   0.000   0.000   0.000   0.000   0.000   0.000   0.000   0.000   0.000   0.000   0.000   0.000  -0.035   0.000


------------------------ aborting loop because EDIFF is reached ----------------------------------------


    CHARGE:  cpu time      0.0568: real time      0.0572
    FORLOC:  cpu time      0.0002: real time      0.0007
    FORNL :  cpu time      0.0195: real time      0.0197
    STRESS:  cpu time      0.1193: real time      0.1204
    FORCOR:  cpu time      0.0059: real time      0.0060
    FORHAR:  cpu time      0.0020: real time      0.0020
    MIXING:  cpu time      0.0003: real time      0.0003
    OFIELD:  cpu time      0.0000: real time      0.0001

  FORCE on cell =-STRESS in cart. coord.  units (eV):
  Direction    XX          YY          ZZ          XY          YZ          ZX
  --------------------------------------------------------------------------------------
  Alpha Z    48.16603    48.16603    48.16603
  Ewald    -315.67222  -315.67222  -315.67222     0.00000     0.00000    -0.00000
  Hartree    73.46942    73.46942    73.46942     0.00000     0.00000     0.00000
  E(xc)     -55.07019   -55.07019   -55.07019     0.00000     0.00000     0.00000
  Local       2.60491     2.60491     2.60491     0.00005     0.00005     0.00005
  n-local    -6.92037    -6.53625    -9.22656     3.05842    -3.33486     1.74190
  augment   175.92535   175.92535   175.92535    -0.00003    -0.00003    -0.00003
  Kinetic    77.31341    77.82477    80.17728    -1.05034     1.42621    -1.76676
  Fock        0.00000     0.00000     0.00000     0.00000     0.00000     0.00000
  -------------------------------------------------------------------------------------
  Total       0.30073     0.30073     0.30073     0.00000    -0.00000    -0.00000
  in kB      45.50545    45.50545    45.50545     0.00000    -0.00000    -0.00000
  external pressure =       45.51 kB  Pullay stress =        0.00 kB


 VOLUME and BASIS-vectors are now :
 -----------------------------------------------------------------------------
  energy-cutoff  :      500.00
  volume of cell :       10.59
      direct lattice vectors                 reciprocal lattice vectors
     0.000000000  1.742869000  1.742869000    -0.286883294  0.286883294  0.286883294
     1.742869000  0.000000000  1.742869000     0.286883294 -0.286883294  0.286883294
     1.742869000  1.742869000  0.000000000     0.286883294  0.286883294 -0.286883294

  length of vectors
     2.464788977  2.464788977  2.464788977     0.496896441  0.496896441  0.496896441


 FORCES acting on ions
    electron-ion (+dipol)            ewald-force                    non-local-force                 convergence-correction
 -----------------------------------------------------------------------------------------------
   -.719E-14 -.112E-13 -.981E-14   -.611E-16 -.147E-14 -.456E-14   0.206E-24 0.206E-24 0.280E-24   0.303E-13 -.113E-14 0.910E-14
 -----------------------------------------------------------------------------------------------
   -.719E-14 -.112E-13 -.981E-14   -.611E-16 -.147E-14 -.456E-14   0.206E-24 0.206E-24 0.280E-24   0.303E-13 -.113E-14 0.910E-14
 
 
 POSITION                                       TOTAL-FORCE (eV/Angst)
 -----------------------------------------------------------------------------------
      0.00000      0.00000      0.00000        -0.000000     -0.000000     -0.000000
 -----------------------------------------------------------------------------------
    total drift:                                0.000000     -0.000000     -0.000000


--------------------------------------------------------------------------------------------------------



  FREE ENERGIE OF THE ION-ELECTRON SYSTEM (eV)
  ---------------------------------------------------
  free  energy   TOTEN  =        -5.41000481 eV

  energy  without entropy=       -5.40442429  energy(sigma->0) =       -5.40721455
 


--------------------------------------------------------------------------------------------------------


    POTLOK:  cpu time      0.0104: real time      0.0105


--------------------------------------------------------------------------------------------------------


     LOOP+:  cpu time     46.6081: real time     47.3866
    4ORBIT:  cpu time      0.0000: real time      0.0000

 total amount of memory used by VASP MPI-rank0    33756. kBytes
=======================================================================

   base      :      30000. kBytes
   nonl-proj :       2621. kBytes
   fftplans  :         85. kBytes
   grid      :        104. kBytes
   one-center:         15. kBytes
   wavefun   :        931. kBytes
 
  
  
 General timing and accounting informations for this job:
 ========================================================
  
                  Total CPU time used (sec):       48.448
                            User time (sec):       41.369
                          System time (sec):        7.080
                         Elapsed time (sec):       52.777
  
                   Maximum memory used (kb):      137832.
                   Average memory used (kb):          N/A
  
                          Minor page faults:        14810
                          Major page faults:         1629
                 Voluntary context switches:          701
