 vasp.6.3.0 20Jan22 (build Oct 14 2024 11:24:38) complex                        
  
 executed on             LinuxIFC date 2025.05.02  12:42:37
 running on   64 total cores
 distrk:  each k-point on   64 cores,    1 groups
 distr:  one band on NCORE=   8 cores,    8 groups


--------------------------------------------------------------------------------------------------------


 INCAR:
   ISTART = 0            (Read existing wavefunction
   ISPIN = 1            (Non-Spin polarised DFT)
   LREAL = .FALSE.       (Projection operators: automatic)
   ENCUT = 500          (Cut-off energy for plane wave basis set, in eV)
   PREC = Accurate     (Precision level)
   LWAVE = .FALSE.       (Write WAVECAR or not)
   LCHARG = .FALSE.       (Write CHGCAR or not)
   ISYM = 0             (0: disable symmetry)
   SYMPREC = 1E-06         (Symmetry detection precision, default\=1E-5)
   NSW = 0
   IBRION = -1
   ISMEAR = 0            (gaussian smearing method)
   SIGMA = 0.05         (please check the width of the smearing)
   NELM = 60           (Max electronic SCF steps)
   EDIFF = 1E-06        (SCF energy convergence
   NCORE = 8             (square root of total cores)
   NELECT = 843

 POTCAR:    PAW_PBE Mn_pv 02Aug2007               
 POTCAR:    PAW_PBE Nb_sv 25May2007               
 POTCAR:    PAW_PBE Fe 06Sep2000                  
 POTCAR:    PAW_PBE Sb 06Sep2000                  
 POTCAR:    PAW_PBE Mn_pv 02Aug2007               
   VRHFIN =Mn: 3p4s3d                                                                               
   LEXCH  = PE                                                                                      
   EATOM  =  2025.2664 eV,  148.8529 Ry                                                             
                                                                                                    
   TITEL  = PAW_PBE Mn_pv 02Aug2007                                                                 
   LULTRA =        F    use ultrasoft PP ?                                                          
   IUNSCR =        1    unscreen: 0-lin 1-nonlin 2-no                                               
   RPACOR =    2.080    partial core radius                                                         
   POMASS =   54.938; ZVAL   =   13.000    mass and valenz                                          
   RCORE  =    2.300    outmost cutoff radius                                                       
   RWIGS  =    2.500; RWIGS  =    1.323    wigner-seitz radius (au A)                               
   ENMAX  =  269.864; ENMIN  =  202.398 eV                                                          
   ICORE  =        3    local potential                                                             
   LCOR   =        T    correct aug charges                                                         
   LPAW   =        T    paw PP                                                                      
   EAUG   =  569.085                                                                                
   DEXC   =    0.000                                                                                
   RMAX   =    2.343    core radius for proj-oper                                                   
   RAUG   =    1.300    factor for augmentation sphere                                              
   RDEP   =    2.338    radius for radial grids                                                     
   RDEPT  =    1.798    core radius for aug-charge                                                  
                                                                                                    
   Atomic configuration                                                                             
    8 entries                                                                                       
     n  l   j            E        occ.                                                              
     1  0  0.50     -6424.8287   2.0000                                                             
     2  0  0.50      -739.1154   2.0000                                                             
     2  1  1.50      -625.3949   6.0000                                                             
     3  0  0.50       -81.6100   2.0000                                                             
     3  1  1.50       -50.4667   6.0000                                                             
     3  2  2.50        -3.3745   6.0000                                                             
     4  0  0.50        -4.1331   1.0000                                                             
     4  3  2.50        -1.3606   0.0000                                                             
   Description                                                                                      
     l       E           TYP  RCUT    TYP  RCUT                                                     
     1    -50.4666628     23  2.000                                                                 
     1     -1.3605826     23  2.000                                                                 
     2     -3.3744729     23  2.300                                                                 
     2     -4.7350555     23  2.300                                                                 
     0     -4.1331431     23  2.300                                                                 
     0      7.6656591     23  2.300                                                                 
     3      9.5240782     23  2.300                                                                 
  local pseudopotential read in
  partial core-charges read in
  partial kinetic energy density read in
  atomic valenz-charges read in
  non local Contribution for L=           1  read in
    real space projection operators read in
  non local Contribution for L=           1  read in
    real space projection operators read in
  non local Contribution for L=           2  read in
    real space projection operators read in
  non local Contribution for L=           2  read in
    real space projection operators read in
  non local Contribution for L=           0  read in
    real space projection operators read in
  non local Contribution for L=           0  read in
    real space projection operators read in
    PAW grid and wavefunctions read in
 
   number of l-projection  operators is LMAX  =           6
   number of lm-projection operators is LMMAX =          18
 
 POTCAR:    PAW_PBE Nb_sv 25May2007               
   VRHFIN =Nb: 4p5s4d                                                                               
   LEXCH  = PE                                                                                      
   EATOM  =  1555.1913 eV,  114.3033 Ry                                                             
                                                                                                    
   TITEL  = PAW_PBE Nb_sv 25May2007                                                                 
   LULTRA =        F    use ultrasoft PP ?                                                          
   IUNSCR =        1    unscreen: 0-lin 1-nonlin 2-no                                               
   RPACOR =    1.800    partial core radius                                                         
   POMASS =   92.910; ZVAL   =   13.000    mass and valenz                                          
   RCORE  =    2.400    outmost cutoff radius                                                       
   RWIGS  =    2.400; RWIGS  =    1.270    wigner-seitz radius (au A)                               
   ENMAX  =  293.235; ENMIN  =  219.927 eV                                                          
   ICORE  =        3    local potential                                                             
   LCOR   =        T    correct aug charges                                                         
   LPAW   =        T    paw PP                                                                      
   EAUG   =  455.659                                                                                
   DEXC   =    0.000                                                                                
   RMAX   =    2.456    core radius for proj-oper                                                   
   RAUG   =    1.300    factor for augmentation sphere                                              
   RDEP   =    2.451    radius for radial grids                                                     
   RDEPT  =    1.956    core radius for aug-charge                                                  
                                                                                                    
   Atomic configuration                                                                             
   11 entries                                                                                       
     n  l   j            E        occ.                                                              
     1  0  0.50    -18805.2457   2.0000                                                             
     2  0  0.50     -2630.2869   2.0000                                                             
     2  1  1.50     -2348.4046   6.0000                                                             
     3  0  0.50      -438.8757   2.0000                                                             
     3  1  1.50      -346.7588   6.0000                                                             
     3  2  2.50      -196.2560  10.0000                                                             
     4  0  0.50       -58.3859   2.0000                                                             
     5  0  0.50        -3.9816   1.0000                                                             
     4  1  1.50       -34.5141   6.0000                                                             
     4  2  2.50        -3.0408   4.0000                                                             
     4  3  2.50        -1.3606   0.0000                                                             
   Description                                                                                      
     l       E           TYP  RCUT    TYP  RCUT                                                     
     0    -58.3859094     23  2.200                                                                 
     0     -3.9816262     23  2.200                                                                 
     1    -34.5140738     23  2.200                                                                 
     1     13.6058260     23  2.200                                                                 
     2     -3.0408010     23  2.200                                                                 
     2     -0.1283038     23  2.200                                                                 
     3     -1.3605826     23  2.400                                                                 
  local pseudopotential read in
  partial core-charges read in
  partial kinetic energy density read in
  atomic valenz-charges read in
  non local Contribution for L=           0  read in
    real space projection operators read in
  non local Contribution for L=           0  read in
    real space projection operators read in
  non local Contribution for L=           1  read in
    real space projection operators read in
  non local Contribution for L=           1  read in
    real space projection operators read in
  non local Contribution for L=           2  read in
    real space projection operators read in
  non local Contribution for L=           2  read in
    real space projection operators read in
    PAW grid and wavefunctions read in
 
   number of l-projection  operators is LMAX  =           6
   number of lm-projection operators is LMMAX =          18
 
 POTCAR:    PAW_PBE Fe 06Sep2000                  
   VRHFIN =Fe:  d7 s1                                                                               
   LEXCH  = PE                                                                                      
   EATOM  =   594.3153 eV,   43.6809 Ry                                                             
                                                                                                    
   TITEL  = PAW_PBE Fe 06Sep2000                                                                    
   LULTRA =        F    use ultrasoft PP ?                                                          
   IUNSCR =        1    unscreen: 0-lin 1-nonlin 2-no                                               
   RPACOR =    2.000    partial core radius                                                         
   POMASS =   55.847; ZVAL   =    8.000    mass and valenz                                          
   RCORE  =    2.300    outmost cutoff radius                                                       
   RWIGS  =    2.460; RWIGS  =    1.302    wigner-seitz radius (au A)                               
   ENMAX  =  267.882; ENMIN  =  200.911 eV                                                          
   RCLOC  =    1.701    cutoff for local pot                                                        
   LCOR   =        T    correct aug charges                                                         
   LPAW   =        T    paw PP                                                                      
   EAUG   =  511.368                                                                                
   DEXC   =    0.000                                                                                
   RMAX   =    2.356    core radius for proj-oper                                                   
   RAUG   =    1.300    factor for augmentation sphere                                              
   RDEP   =    2.442    radius for radial grids                                                     
   RDEPT  =    1.890    core radius for aug-charge                                                  
                                                                                                    
   Atomic configuration                                                                             
    9 entries                                                                                       
     n  l   j            E        occ.                                                              
     1  0  0.50     -6993.8440   2.0000                                                             
     2  0  0.50      -814.6047   2.0000                                                             
     2  1  1.50      -693.3689   6.0000                                                             
     3  0  0.50       -89.4732   2.0000                                                             
     3  1  1.50       -55.6373   6.0000                                                             
     3  2  2.50        -3.8151   7.0000                                                             
     4  0  0.50        -4.2551   1.0000                                                             
     4  1  1.50        -3.4015   0.0000                                                             
     4  3  2.50        -1.3606   0.0000                                                             
   Description                                                                                      
     l       E           TYP  RCUT    TYP  RCUT                                                     
     2     -3.8151135     23  2.300                                                                 
     2     -5.1756961     23  2.300                                                                 
     0     -4.2550963     23  2.300                                                                 
     0      7.2035603     23  2.300                                                                 
     1     -2.7211652     23  2.300                                                                 
     1     18.4316424     23  2.300                                                                 
  local pseudopotential read in
  partial core-charges read in
  partial kinetic energy density read in
  atomic valenz-charges read in
  non local Contribution for L=           2  read in
    real space projection operators read in
  non local Contribution for L=           2  read in
    real space projection operators read in
  non local Contribution for L=           0  read in
    real space projection operators read in
  non local Contribution for L=           0  read in
    real space projection operators read in
  non local Contribution for L=           1  read in
    real space projection operators read in
  non local Contribution for L=           1  read in
    real space projection operators read in
    PAW grid and wavefunctions read in
 
   number of l-projection  operators is LMAX  =           6
   number of lm-projection operators is LMMAX =          18
 
 POTCAR:    PAW_PBE Sb 06Sep2000                  
   VRHFIN =Sb: s2p3                                                                                 
   LEXCH  = PE                                                                                      
   EATOM  =   149.9515 eV,   11.0211 Ry                                                             
                                                                                                    
   TITEL  = PAW_PBE Sb 06Sep2000                                                                    
   LULTRA =        F    use ultrasoft PP ?                                                          
   IUNSCR =        1    unscreen: 0-lin 1-nonlin 2-no                                               
   RPACOR =    2.200    partial core radius                                                         
   POMASS =  121.750; ZVAL   =    5.000    mass and valenz                                          
   RCORE  =    2.300    outmost cutoff radius                                                       
   RWIGS  =    2.980; RWIGS  =    1.577    wigner-seitz radius (au A)                               
   ENMAX  =  172.069; ENMIN  =  129.052 eV                                                          
   ICORE  =        3    local potential                                                             
   LCOR   =        T    correct aug charges                                                         
   LPAW   =        T    paw PP                                                                      
   EAUG   =  380.513                                                                                
   DEXC   =    0.000                                                                                
   RMAX   =    2.346    core radius for proj-oper                                                   
   RAUG   =    1.300    factor for augmentation sphere                                              
   RDEP   =    2.360    radius for radial grids                                                     
   RDEPT  =    2.192    core radius for aug-charge                                                  
                                                                                                    
   Atomic configuration                                                                             
   13 entries                                                                                       
     n  l   j            E        occ.                                                              
     1  0  0.50    -30298.2797   2.0000                                                             
     2  0  0.50     -4610.2252   2.0000                                                             
     2  1  1.50     -4138.3407   6.0000                                                             
     3  0  0.50      -903.8815   2.0000                                                             
     3  1  1.50      -750.1337   6.0000                                                             
     3  2  2.50      -515.7092  10.0000                                                             
     4  0  0.50      -148.8034   2.0000                                                             
     4  1  1.50      -101.7581   6.0000                                                             
     4  2  2.50       -33.5048  10.0000                                                             
     5  0  0.50       -12.8298   2.0000                                                             
     5  1  0.50        -4.8276   3.0000                                                             
     5  2  1.50        -4.0817   0.0000                                                             
     4  3  2.50        -4.0817   0.0000                                                             
   Description                                                                                      
     l       E           TYP  RCUT    TYP  RCUT                                                     
     0    -12.8297861     23  2.300                                                                 
     0     13.6058260     23  2.300                                                                 
     1     -4.8275512     23  2.300                                                                 
     1     -0.7245443     23  2.300                                                                 
     2     -4.0817478     23  2.300                                                                 
     3     -1.3605826     23  2.300                                                                 
  local pseudopotential read in
  partial core-charges read in
  partial kinetic energy density read in
  atomic valenz-charges read in
  non local Contribution for L=           0  read in
    real space projection operators read in
  non local Contribution for L=           0  read in
    real space projection operators read in
  non local Contribution for L=           1  read in
    real space projection operators read in
  non local Contribution for L=           1  read in
    real space projection operators read in
  non local Contribution for L=           2  read in
    real space projection operators read in
    PAW grid and wavefunctions read in
 
   number of l-projection  operators is LMAX  =           5
   number of lm-projection operators is LMMAX =          13
 
 -----------------------------------------------------------------------------
|                                                                             |
|               ----> ADVICE to this user running VASP <----                  |
|                                                                             |
|     You have a (more or less) 'large supercell' and for larger cells it     |
|     might be more efficient to use real-space projection operators.         |
|     Therefore, try LREAL= Auto in the INCAR file.                           |
|     Mind: For very accurate calculation, you might also keep the            |
|     reciprocal projection scheme (i.e. LREAL=.FALSE.).                      |
|                                                                             |
 -----------------------------------------------------------------------------

  PAW_PBE Mn_pv 02Aug2007               :
 energy of atom  1       EATOM=-2025.2664
 kinetic energy error for atom=    0.0062 (will be added to EATOM!!)
  PAW_PBE Nb_sv 25May2007               :
 energy of atom  2       EATOM=-1555.1913
 kinetic energy error for atom=    0.0069 (will be added to EATOM!!)
  PAW_PBE Fe 06Sep2000                  :
 energy of atom  3       EATOM= -594.3153
 kinetic energy error for atom=    0.0026 (will be added to EATOM!!)
  PAW_PBE Sb 06Sep2000                  :
 energy of atom  4       EATOM= -149.9515
 kinetic energy error for atom=    0.0005 (will be added to EATOM!!)
 
 
 POSCAR: Relexed NbFeSb 2x2x2 supercell with inte
  positions in direct lattice
  velocities in cartesian coordinates
 exchange correlation table for  LEXCH =        8
   RHO(1)=    0.500       N(1)  =     2000
   RHO(2)=  100.500       N(2)  =     4000
 


--------------------------------------------------------------------------------------------------------


 ion  position               nearest neighbor table
   1  0.125  0.125  0.125-  10 2.62  18 2.62   2 2.62  26 2.62  66 2.66  74 2.66  82 2.66  90 2.66
                            50 2.94  54 2.94  34 2.94  35 2.94  42 2.94  44 2.94
   2  0.998  0.998  0.998-  65 2.56  44 2.57  54 2.57  35 2.57   1 2.62  70 2.95  83 2.95  92 2.95
                            82 3.05  90 3.05  66 3.05
   3  1.000  1.000  0.501-  45 2.57  55 2.57  64 2.59  34 2.61  82 2.95  83 2.97  71 2.98  93 2.98
                            91 2.98  67 2.98
   4  1.000  0.501  1.000-  37 2.57  56 2.57  63 2.59  42 2.61  90 2.95  92 2.97  72 2.98  85 2.98
                            84 2.98  68 2.98
   5  1.000  0.500  0.500-  62 2.57  57 2.57  43 2.59  36 2.59  85 2.97  93 2.97  73 2.98  69 2.98
                            84 2.98  91 2.98
   6  0.501  1.000  1.000-  39 2.57  48 2.57  61 2.59  50 2.61  66 2.95  70 2.97  87 2.98  96 2.98
                            94 2.98  86 2.98
   7  0.500  1.000  0.500-  60 2.57  49 2.57  51 2.59  38 2.59  71 2.97  87 2.97  97 2.98  95 2.98
                            86 2.98  67 2.98
   8  0.500  0.500  1.000-  59 2.57  41 2.57  46 2.59  52 2.59  72 2.97  96 2.97  89 2.98  88 2.98
                            94 2.98  68 2.98
   9  0.500  0.500  0.500-  58 2.55  47 2.58  53 2.58  40 2.58  73 2.97  89 2.97  97 2.97  69 2.98
                            88 2.98  95 2.98
  10  0.998  0.252  0.252-  62 2.56  34 2.57  54 2.57  42 2.57   1 2.62  78 2.95  84 2.95  91 2.95
                            74 3.05  90 3.05  82 3.05
  11  1.000  0.250  0.749-  43 2.57  55 2.57  63 2.59  35 2.61  90 2.95  91 2.97  79 2.98  85 2.98
                            83 2.98  75 2.98
  12  1.000  0.749  0.250-  36 2.57  56 2.57  64 2.59  44 2.61  82 2.95  84 2.97  80 2.98  93 2.98
                            92 2.98  76 2.98
  13  1.000  0.750  0.750-  65 2.57  57 2.57  37 2.59  45 2.59  85 2.97  93 2.97  81 2.98  77 2.98
                            92 2.98  83 2.98
  14  0.501  0.250  0.250-  38 2.57  46 2.57  58 2.59  50 2.61  74 2.95  78 2.97  88 2.98  95 2.98
                            94 2.98  86 2.98
  15  0.500  0.250  0.750-  59 2.57  47 2.57  39 2.59  51 2.59  79 2.97  95 2.97  89 2.98  87 2.98
                            94 2.98  75 2.98
  16  0.500  0.750  0.250-  60 2.57  40 2.57  48 2.59  52 2.59  80 2.97  88 2.97  97 2.98  96 2.98
                            86 2.98  76 2.98
  17  0.500  0.750  0.750-  61 2.55  41 2.58  53 2.58  49 2.58  81 2.97  89 2.97  97 2.97  96 2.98
                            77 2.98  87 2.98
  18  0.252  0.998  0.252-  60 2.56  34 2.57  50 2.57  44 2.57   1 2.62  67 2.95  76 2.95  86 2.95
                            66 3.05  82 3.05  74 3.05
  19  0.250  1.000  0.749-  45 2.57  51 2.57  61 2.59  35 2.61  66 2.95  67 2.97  77 2.98  87 2.98
                            83 2.98  75 2.98
  20  0.250  0.501  0.250-  36 2.57  52 2.57  58 2.59  42 2.61  74 2.95  76 2.97  69 2.98  88 2.98
                            84 2.98  68 2.98
  21  0.250  0.500  0.750-  59 2.57  53 2.57  37 2.59  43 2.59  69 2.97  77 2.97  89 2.98  85 2.98
                            68 2.98  75 2.98
  22  0.749  1.000  0.250-  38 2.57  48 2.57  64 2.59  54 2.61  82 2.95  86 2.97  71 2.98  80 2.98
                            78 2.98  70 2.98
  23  0.750  1.000  0.750-  65 2.57  49 2.57  39 2.59  55 2.59  71 2.97  87 2.97  81 2.98  79 2.98
                            83 2.98  70 2.98
  24  0.750  0.500  0.250-  62 2.57  40 2.57  46 2.59  56 2.59  80 2.97  88 2.97  73 2.98  72 2.98
                            84 2.98  78 2.98
  25  0.750  0.500  0.750-  63 2.55  41 2.58  57 2.58  47 2.58  73 2.97  81 2.97  89 2.97  85 2.98
                            72 2.98  79 2.98
  26  0.252  0.252  0.998-  59 2.56  42 2.57  50 2.57  35 2.57   1 2.62  68 2.95  75 2.95  94 2.95
                            66 3.05  90 3.05  74 3.05
  27  0.250  0.250  0.501-  43 2.57  51 2.57  58 2.59  34 2.61  74 2.95  75 2.97  69 2.98  95 2.98
                            91 2.98  67 2.98
  28  0.250  0.749  1.000-  37 2.57  52 2.57  61 2.59  44 2.61  66 2.95  68 2.97  77 2.98  96 2.98
                            92 2.98  76 2.98
  29  0.250  0.750  0.500-  60 2.57  53 2.57  45 2.59  36 2.59  69 2.97  77 2.97  97 2.98  93 2.98
                            76 2.98  67 2.98
  30  0.749  0.250  1.000-  39 2.57  46 2.57  63 2.59  54 2.61  90 2.95  94 2.97  72 2.98  79 2.98
                            78 2.98  70 2.98
  31  0.750  0.250  0.500-  62 2.57  47 2.57  55 2.59  38 2.59  79 2.97  95 2.97  73 2.98  71 2.98
                            91 2.98  78 2.98
  32  0.750  0.750  1.000-  65 2.57  41 2.57  48 2.59  56 2.59  72 2.97  96 2.97  81 2.98  80 2.98
                            92 2.98  70 2.98
  33  0.750  0.750  0.500-  64 2.55  49 2.58  57 2.58  40 2.58  73 2.97  81 2.97  97 2.97  93 2.98
                            80 2.98  71 2.98
  34  0.125  0.125  0.372-  10 2.57  18 2.57  74 2.58  82 2.58  67 2.59  91 2.59   3 2.61  27 2.61
                             1 2.94
  35  0.125  0.125  0.878-   2 2.57  26 2.57  66 2.58  90 2.58  83 2.59  75 2.59  19 2.61  11 2.61
                             1 2.94
  36  0.125  0.625  0.374-  12 2.57  20 2.57  76 2.57  84 2.57  69 2.58  93 2.58   5 2.59  29 2.59

  37  0.125  0.625  0.876-   4 2.57  28 2.57  68 2.57  92 2.57  85 2.58  77 2.58  21 2.59  13 2.59

  38  0.625  0.125  0.374-  14 2.57  22 2.57  78 2.57  86 2.57  71 2.58  95 2.58   7 2.59  31 2.59

  39  0.625  0.125  0.876-   6 2.57  30 2.57  70 2.57  94 2.57  87 2.58  79 2.58  23 2.59  15 2.59

  40  0.625  0.625  0.375-  16 2.57  24 2.57  80 2.57  88 2.57  73 2.58  97 2.58   9 2.58  33 2.58

  41  0.625  0.625  0.875-   8 2.57  32 2.57  72 2.57  96 2.57  89 2.58  81 2.58  25 2.58  17 2.58

  42  0.125  0.372  0.125-  10 2.57  26 2.57  74 2.58  90 2.58  84 2.59  68 2.59  20 2.61   4 2.61
                             1 2.94
  43  0.125  0.374  0.625-  11 2.57  27 2.57  75 2.57  91 2.57  85 2.58  69 2.58   5 2.59  21 2.59

  44  0.125  0.878  0.125-   2 2.57  18 2.57  66 2.58  82 2.58  76 2.59  92 2.59  12 2.61  28 2.61
                             1 2.94
  45  0.125  0.876  0.625-   3 2.57  19 2.57  67 2.57  83 2.57  77 2.58  93 2.58  29 2.59  13 2.59

  46  0.625  0.374  0.125-  14 2.57  30 2.57  78 2.57  94 2.57  88 2.58  72 2.58  24 2.59   8 2.59

  47  0.625  0.375  0.625-  15 2.57  31 2.57  79 2.57  95 2.57  89 2.58  73 2.58   9 2.58  25 2.58

  48  0.625  0.876  0.125-   6 2.57  22 2.57  70 2.57  86 2.57  80 2.58  96 2.58  16 2.59  32 2.59

  49  0.625  0.875  0.625-   7 2.57  23 2.57  71 2.57  87 2.57  81 2.58  97 2.58  33 2.58  17 2.58

  50  0.372  0.125  0.125-  18 2.57  26 2.57  74 2.58  66 2.58  86 2.59  94 2.59   6 2.61  14 2.61
                             1 2.94
  51  0.374  0.125  0.625-  19 2.57  27 2.57  67 2.57  75 2.57  87 2.58  95 2.58   7 2.59  15 2.59

  52  0.374  0.625  0.125-  20 2.57  28 2.57  68 2.57  76 2.57  88 2.58  96 2.58   8 2.59  16 2.59

  53  0.375  0.625  0.625-  21 2.57  29 2.57  69 2.57  77 2.57  89 2.58  97 2.58   9 2.58  17 2.58

  54  0.878  0.125  0.125-   2 2.57  10 2.57  82 2.58  90 2.58  78 2.59  70 2.59  22 2.61  30 2.61
                             1 2.94
  55  0.876  0.125  0.625-   3 2.57  11 2.57  83 2.57  91 2.57  71 2.58  79 2.58  31 2.59  23 2.59

  56  0.876  0.625  0.125-   4 2.57  12 2.57  84 2.57  92 2.57  72 2.58  80 2.58  24 2.59  32 2.59

  57  0.875  0.625  0.625-   5 2.57  13 2.57  85 2.57  93 2.57  73 2.58  81 2.58  25 2.58  33 2.58

  58  0.376  0.376  0.376-  74 2.53   9 2.55  69 2.57  88 2.57  95 2.57  20 2.59  27 2.59  14 2.59

  59  0.376  0.376  0.874-  89 2.56  26 2.56  21 2.57   8 2.57  15 2.57  68 2.59  75 2.59  94 2.59

  60  0.376  0.874  0.376-  97 2.56  18 2.56   7 2.57  16 2.57  29 2.57  76 2.59  86 2.59  67 2.59

  61  0.376  0.874  0.874-  66 2.53  17 2.55  77 2.57  87 2.57  96 2.57  19 2.59  28 2.59   6 2.59

  62  0.874  0.376  0.376-  73 2.56  10 2.56  31 2.57  24 2.57   5 2.57  84 2.59  78 2.59  91 2.59

  63  0.874  0.376  0.874-  90 2.53  25 2.55  79 2.57  85 2.57  72 2.57   4 2.59  30 2.59  11 2.59

  64  0.874  0.874  0.376-  82 2.53  33 2.55  80 2.57  71 2.57  93 2.57  22 2.59   3 2.59  12 2.59

  65  0.874  0.874  0.874-  81 2.56   2 2.56  23 2.57  32 2.57  13 2.57  92 2.59  83 2.59  70 2.59

  66  0.254  0.996  0.996-  61 2.53  35 2.58  50 2.58  44 2.58   1 2.66  19 2.95  28 2.95   6 2.95
                            26 3.05  18 3.05   2 3.05
  67  0.250  0.000  0.500-  45 2.57  51 2.57  60 2.59  34 2.59  18 2.95  19 2.97   3 2.98  27 2.98
                             7 2.98  29 2.98
  68  0.250  0.500  0.000-  37 2.57  52 2.57  59 2.59  42 2.59  26 2.95  28 2.97   4 2.98  20 2.98
                            21 2.98   8 2.98
  69  0.250  0.500  0.500-  53 2.57  58 2.57  36 2.58  43 2.58  21 2.97  29 2.97  27 2.98  20 2.98
                             5 2.98   9 2.98
  70  0.750  0.000  0.000-  39 2.57  48 2.57  65 2.59  54 2.59   2 2.95   6 2.97  22 2.98  30 2.98
                            23 2.98  32 2.98
  71  0.750  0.000  0.500-  49 2.57  64 2.57  55 2.58  38 2.58   7 2.97  23 2.97  22 2.98   3 2.98
                            31 2.98  33 2.98
  72  0.750  0.500  0.000-  41 2.57  63 2.57  56 2.58  46 2.58   8 2.97  32 2.97  30 2.98   4 2.98
                            24 2.98  25 2.98
  73  0.750  0.500  0.500-  62 2.56  57 2.58  40 2.58  47 2.58  25 2.97  33 2.97   9 2.97  31 2.98
                            24 2.98   5 2.98
  74  0.254  0.254  0.254-  58 2.53  50 2.58  34 2.58  42 2.58   1 2.66  20 2.95  27 2.95  14 2.95
                            26 3.05  18 3.05  10 3.05
  75  0.250  0.250  0.750-  43 2.57  51 2.57  59 2.59  35 2.59  26 2.95  27 2.97  11 2.98  19 2.98
                            15 2.98  21 2.98
  76  0.250  0.750  0.250-  36 2.57  52 2.57  60 2.59  44 2.59  18 2.95  20 2.97  12 2.98  28 2.98
                            29 2.98  16 2.98
  77  0.250  0.750  0.750-  53 2.57  61 2.57  37 2.58  45 2.58  21 2.97  29 2.97  28 2.98  19 2.98
                            13 2.98  17 2.98
  78  0.750  0.250  0.250-  38 2.57  46 2.57  62 2.59  54 2.59  10 2.95  14 2.97  22 2.98  30 2.98
                            31 2.98  24 2.98
  79  0.750  0.250  0.750-  47 2.57  63 2.57  55 2.58  39 2.58  15 2.97  31 2.97  30 2.98  11 2.98
                            23 2.98  25 2.98
  80  0.750  0.750  0.250-  40 2.57  64 2.57  56 2.58  48 2.58  16 2.97  24 2.97  22 2.98  12 2.98
                            32 2.98  33 2.98
  81  0.750  0.750  0.750-  65 2.56  57 2.58  49 2.58  41 2.58  25 2.97  33 2.97  17 2.97  32 2.98
                            23 2.98  13 2.98
  82  0.996  0.996  0.254-  64 2.53  54 2.58  34 2.58  44 2.58   1 2.66  12 2.95  22 2.95   3 2.95
                             2 3.05  18 3.05  10 3.05
  83  0.000  0.000  0.750-  45 2.57  55 2.57  65 2.59  35 2.59   2 2.95   3 2.97  11 2.98  19 2.98
                            23 2.98  13 2.98
  84  0.000  0.500  0.250-  36 2.57  56 2.57  62 2.59  42 2.59  10 2.95  12 2.97   4 2.98  20 2.98
                             5 2.98  24 2.98
  85  0.000  0.500  0.750-  57 2.57  63 2.57  37 2.58  43 2.58   5 2.97  13 2.97  11 2.98   4 2.98
                            21 2.98  25 2.98
  86  0.500  0.000  0.250-  38 2.57  48 2.57  60 2.59  50 2.59  18 2.95  22 2.97   6 2.98  14 2.98
                             7 2.98  16 2.98
  87  0.500  0.000  0.750-  49 2.57  61 2.57  51 2.58  39 2.58   7 2.97  23 2.97  19 2.98   6 2.98
                            15 2.98  17 2.98
  88  0.500  0.500  0.250-  40 2.57  58 2.57  52 2.58  46 2.58  16 2.97  24 2.97  20 2.98  14 2.98
                             8 2.98   9 2.98
  89  0.500  0.500  0.750-  59 2.56  53 2.58  47 2.58  41 2.58  17 2.97  25 2.97   9 2.97  21 2.98
                            15 2.98   8 2.98
  90  0.996  0.254  0.996-  63 2.53  35 2.58  54 2.58  42 2.58   1 2.66  11 2.95  30 2.95   4 2.95
                            26 3.05  10 3.05   2 3.05
  91  0.000  0.250  0.500-  43 2.57  55 2.57  62 2.59  34 2.59  10 2.95  11 2.97   3 2.98  27 2.98
                            31 2.98   5 2.98
  92  0.000  0.750  0.000-  37 2.57  56 2.57  65 2.59  44 2.59   2 2.95   4 2.97  12 2.98  28 2.98
                            13 2.98  32 2.98
  93  0.000  0.750  0.500-  57 2.57  64 2.57  36 2.58  45 2.58   5 2.97  13 2.97  12 2.98   3 2.98
                            29 2.98  33 2.98
  94  0.500  0.250  0.000-  39 2.57  46 2.57  59 2.59  50 2.59  26 2.95  30 2.97   6 2.98  14 2.98
                            15 2.98   8 2.98
  95  0.500  0.250  0.500-  47 2.57  58 2.57  51 2.58  38 2.58  15 2.97  31 2.97  27 2.98  14 2.98
                             7 2.98   9 2.98
  96  0.500  0.750  0.000-  41 2.57  61 2.57  52 2.58  48 2.58   8 2.97  32 2.97  28 2.98   6 2.98
                            16 2.98  17 2.98
  97  0.500  0.750  0.500-  60 2.56  53 2.58  40 2.58  49 2.58  17 2.97  33 2.97   9 2.97  29 2.98
                            16 2.98   7 2.98
 

IMPORTANT INFORMATION: All symmetrisations will be switched off!
NOSYMM: (Re-)initialisation of all symmetry stuff for point group C_1.


----------------------------------------------------------------------------------------

                                     Primitive cell                                     

  volume of cell :    1689.3517

  direct lattice vectors                    reciprocal lattice vectors
    11.909860967  0.000000000  0.000000000     0.083964036 -0.000000000 -0.000000000
     0.000000000 11.909860967  0.000000000     0.000000000  0.083964036 -0.000000000
     0.000000000  0.000000000 11.909860967     0.000000000  0.000000000  0.083964036

  length of vectors
    11.909860967 11.909860967 11.909860967     0.083964036  0.083964036  0.083964036

  position of ions in fractional coordinates (direct lattice)
     0.125000000  0.125000000  0.125000000
     0.997825747  0.997825747  0.997825747
     0.999640608  0.999640608  0.500988946
     0.999640608  0.500988946  0.999640608
     0.999666611  0.500041524  0.500041524
     0.500988946  0.999640608  0.999640608
     0.500041524  0.999666611  0.500041524
     0.500041524  0.500041524  0.999666611
     0.500254330  0.500254330  0.500254330
     0.997825747  0.252174253  0.252174253
     0.999640608  0.250359392  0.749011054
     0.999640608  0.749011054  0.250359392
     0.999666611  0.749958476  0.749958476
     0.500988946  0.250359392  0.250359392
     0.500041524  0.250333389  0.749958476
     0.500041524  0.749958476  0.250333389
     0.500254330  0.749745670  0.749745670
     0.252174253  0.997825747  0.252174253
     0.250359392  0.999640608  0.749011054
     0.250359392  0.500988946  0.250359392
     0.250333389  0.500041524  0.749958476
     0.749011054  0.999640608  0.250359392
     0.749958476  0.999666611  0.749958476
     0.749958476  0.500041524  0.250333389
     0.749745670  0.500254330  0.749745670
     0.252174253  0.252174253  0.997825747
     0.250359392  0.250359392  0.500988946
     0.250359392  0.749011054  0.999640608
     0.250333389  0.749958476  0.500041524
     0.749011054  0.250359392  0.999640608
     0.749958476  0.250333389  0.500041524
     0.749958476  0.749958476  0.999666611
     0.749745670  0.749745670  0.500254330
     0.125000000  0.125000000  0.371872513
     0.125000000  0.125000000  0.878127487
     0.125000000  0.625000000  0.374149435
     0.125000000  0.625000000  0.875850565
     0.625000000  0.125000000  0.374149435
     0.625000000  0.125000000  0.875850565
     0.625000000  0.625000000  0.374581427
     0.625000000  0.625000000  0.875418573
     0.125000000  0.371872513  0.125000000
     0.125000000  0.374149435  0.625000000
     0.125000000  0.878127487  0.125000000
     0.125000000  0.875850565  0.625000000
     0.625000000  0.374149435  0.125000000
     0.625000000  0.374581427  0.625000000
     0.625000000  0.875850565  0.125000000
     0.625000000  0.875418573  0.625000000
     0.371872513  0.125000000  0.125000000
     0.374149435  0.125000000  0.625000000
     0.374149435  0.625000000  0.125000000
     0.374581427  0.625000000  0.625000000
     0.878127487  0.125000000  0.125000000
     0.875850565  0.125000000  0.625000000
     0.875850565  0.625000000  0.125000000
     0.875418573  0.625000000  0.625000000
     0.376434209  0.376434209  0.376434209
     0.376393253  0.376393253  0.873606747
     0.376393253  0.873606747  0.376393253
     0.376434209  0.873565791  0.873565791
     0.873606747  0.376393253  0.376393253
     0.873565791  0.376434209  0.873565791
     0.873565791  0.873565791  0.376434209
     0.873606747  0.873606747  0.873606747
     0.253756195  0.996243805  0.996243805
     0.249725402  0.000274598  0.499750012
     0.249725402  0.499750012  0.000274598
     0.249736955  0.500263316  0.500263316
     0.750249988  0.000274598  0.000274598
     0.749736684  0.000263045  0.500263316
     0.749736684  0.500263316  0.000263045
     0.749656615  0.500343385  0.500343385
     0.253756195  0.253756195  0.253756195
     0.249725402  0.249725402  0.750249988
     0.249725402  0.750249988  0.249725402
     0.249736955  0.749736684  0.749736684
     0.750249988  0.249725402  0.249725402
     0.749736684  0.249736955  0.749736684
     0.749736684  0.749736684  0.249736955
     0.749656615  0.749656615  0.749656615
     0.996243805  0.996243805  0.253756195
     0.000274598  0.000274598  0.750249988
     0.000274598  0.499750012  0.249725402
     0.000263045  0.500263316  0.749736684
     0.499750012  0.000274598  0.249725402
     0.500263316  0.000263045  0.749736684
     0.500263316  0.500263316  0.249736955
     0.500343385  0.500343385  0.749656615
     0.996243805  0.253756195  0.996243805
     0.000274598  0.249725402  0.499750012
     0.000274598  0.750249988  0.000274598
     0.000263045  0.749736684  0.500263316
     0.499750012  0.249725402  0.000274598
     0.500263316  0.249736955  0.500263316
     0.500263316  0.749736684  0.000263045
     0.500343385  0.749656615  0.500343385

  ion indices of the primitive-cell ions
   primitive index   ion index
                 1           1
                 2           2
                 3           3
                 4           4
                 5           5
                 6           6
                 7           7
                 8           8
                 9           9
                10          10
                11          11
                12          12
                13          13
                14          14
                15          15
                16          16
                17          17
                18          18
                19          19
                20          20
                21          21
                22          22
                23          23
                24          24
                25          25
                26          26
                27          27
                28          28
                29          29
                30          30
                31          31
                32          32
                33          33
                34          34
                35          35
                36          36
                37          37
                38          38
                39          39
                40          40
                41          41
                42          42
                43          43
                44          44
                45          45
                46          46
                47          47
                48          48
                49          49
                50          50
                51          51
                52          52
                53          53
                54          54
                55          55
                56          56
                57          57
                58          58
                59          59
                60          60
                61          61
                62          62
                63          63
                64          64
                65          65
                66          66
                67          67
                68          68
                69          69
                70          70
                71          71
                72          72
                73          73
                74          74
                75          75
                76          76
                77          77
                78          78
                79          79
                80          80
                81          81
                82          82
                83          83
                84          84
                85          85
                86          86
                87          87
                88          88
                89          89
                90          90
                91          91
                92          92
                93          93
                94          94
                95          95
                96          96
                97          97

----------------------------------------------------------------------------------------

 
 
 KPOINTS: K-Spacing Value to Generate K-Mesh: 0.02

Automatic generation of k-mesh.
 Grid dimensions read from file:
 generate k-points for:    4    4    4

 Generating k-lattice:

  Cartesian coordinates                     Fractional coordinates (reciprocal lattice)
     0.020991009 -0.000000000 -0.000000000     0.250000000 -0.000000000  0.000000000
     0.000000000  0.020991009 -0.000000000     0.000000000  0.250000000  0.000000000
     0.000000000  0.000000000  0.020991009     0.000000000  0.000000000  0.250000000

  Length of vectors
     0.020991009  0.020991009  0.020991009

  Shift w.r.t. Gamma in fractional coordinates (k-lattice)
     0.500000000  0.500000000  0.500000000

 
 Subroutine IBZKPT returns following result:
 ===========================================
 
 Found     32 irreducible k-points:
 
 Following reciprocal coordinates:
            Coordinates               Weight
  0.125000  0.125000  0.125000      2.000000
 -0.125000  0.125000  0.125000      2.000000
 -0.125000 -0.125000  0.125000      2.000000
  0.125000 -0.125000  0.125000      2.000000
  0.375000  0.125000  0.125000      2.000000
  0.125000  0.375000  0.125000      2.000000
  0.125000  0.125000  0.375000      2.000000
 -0.125000  0.375000  0.125000      2.000000
 -0.375000  0.125000  0.125000      2.000000
 -0.125000  0.125000  0.375000      2.000000
 -0.375000 -0.125000  0.125000      2.000000
 -0.125000 -0.375000  0.125000      2.000000
 -0.125000 -0.125000  0.375000      2.000000
  0.125000 -0.375000  0.125000      2.000000
  0.375000 -0.125000  0.125000      2.000000
  0.125000 -0.125000  0.375000      2.000000
  0.375000  0.375000  0.125000      2.000000
  0.125000  0.375000  0.375000      2.000000
  0.375000  0.125000  0.375000      2.000000
 -0.375000  0.375000  0.125000      2.000000
 -0.375000  0.125000  0.375000      2.000000
 -0.125000  0.375000  0.375000      2.000000
 -0.375000 -0.375000  0.125000      2.000000
 -0.125000 -0.375000  0.375000      2.000000
 -0.375000 -0.125000  0.375000      2.000000
  0.375000 -0.375000  0.125000      2.000000
  0.375000 -0.125000  0.375000      2.000000
  0.125000 -0.375000  0.375000      2.000000
  0.375000  0.375000  0.375000      2.000000
 -0.375000  0.375000  0.375000      2.000000
 -0.375000 -0.375000  0.375000      2.000000
  0.375000 -0.375000  0.375000      2.000000
 
 Following cartesian coordinates:
            Coordinates               Weight
  0.010496  0.010496  0.010496      2.000000
 -0.010496  0.010496  0.010496      2.000000
 -0.010496 -0.010496  0.010496      2.000000
  0.010496 -0.010496  0.010496      2.000000
  0.031487  0.010496  0.010496      2.000000
  0.010496  0.031487  0.010496      2.000000
  0.010496  0.010496  0.031487      2.000000
 -0.010496  0.031487  0.010496      2.000000
 -0.031487  0.010496  0.010496      2.000000
 -0.010496  0.010496  0.031487      2.000000
 -0.031487 -0.010496  0.010496      2.000000
 -0.010496 -0.031487  0.010496      2.000000
 -0.010496 -0.010496  0.031487      2.000000
  0.010496 -0.031487  0.010496      2.000000
  0.031487 -0.010496  0.010496      2.000000
  0.010496 -0.010496  0.031487      2.000000
  0.031487  0.031487  0.010496      2.000000
  0.010496  0.031487  0.031487      2.000000
  0.031487  0.010496  0.031487      2.000000
 -0.031487  0.031487  0.010496      2.000000
 -0.031487  0.010496  0.031487      2.000000
 -0.010496  0.031487  0.031487      2.000000
 -0.031487 -0.031487  0.010496      2.000000
 -0.010496 -0.031487  0.031487      2.000000
 -0.031487 -0.010496  0.031487      2.000000
  0.031487 -0.031487  0.010496      2.000000
  0.031487 -0.010496  0.031487      2.000000
  0.010496 -0.031487  0.031487      2.000000
  0.031487  0.031487  0.031487      2.000000
 -0.031487  0.031487  0.031487      2.000000
 -0.031487 -0.031487  0.031487      2.000000
  0.031487 -0.031487  0.031487      2.000000
 


--------------------------------------------------------------------------------------------------------




 Dimension of arrays:
   k-points           NKPTS =     32   k-points in BZ     NKDIM =     32   number of bands    NBANDS=    512
   number of dos      NEDOS =    301   number of ions     NIONS =     97
   non local maximal  LDIM  =      6   non local SUM 2l+1 LMDIM =     18
   total plane-waves  NPLWV = 729000
   max r-space proj   IRMAX =      1   max aug-charges    IRDMAX=  24145
   dimension x,y,z NGX =    90 NGY =   90 NGZ =   90
   dimension x,y,z NGXF=   180 NGYF=  180 NGZF=  180
   support grid    NGXF=   180 NGYF=  180 NGZF=  180
   ions per type =               1  32  32  32
   NGX,Y,Z   is equivalent  to a cutoff of  12.56, 12.56, 12.56 a.u.
   NGXF,Y,Z  is equivalent  to a cutoff of  25.13, 25.13, 25.13 a.u.

 SYSTEM =  unknown system                          
 POSCAR =  Relexed NbFeSb 2x2x2 supercell with inte

 Startparameter for this run:
   NWRITE =      2    write-flag & timer
   PREC   = accura    normal or accurate (medium, high low for compatibility)
   ISTART =      0    job   : 0-new  1-cont  2-samecut
   ICHARG =      2    charge: 1-file 2-atom 10-const
   ISPIN  =      1    spin polarized calculation?
   LNONCOLLINEAR =      F non collinear calculations
   LSORBIT =      F    spin-orbit coupling
   INIWAV =      1    electr: 0-lowe 1-rand  2-diag
   LASPH  =      F    aspherical Exc in radial PAW
 Electronic Relaxation 1
   ENCUT  =  500.0 eV  36.75 Ry    6.06 a.u.  21.71 21.71 21.71*2*pi/ulx,y,z
   ENINI  =  500.0     initial cutoff
   ENAUG  =  569.1 eV  augmentation charge cutoff
   NELM   =     60;   NELMIN=  2; NELMDL= -5     # of ELM steps 
   EDIFF  = 0.1E-05   stopping-criterion for ELM
   LREAL  =      F    real-space projection
   NLSPLINE    = F    spline interpolate recip. space projectors
   LCOMPAT=      F    compatible to vasp.4.4
   GGA_COMPAT  = T    GGA compatible to vasp.4.4-vasp.4.6
   LMAXPAW     = -100 max onsite density
   LMAXMIX     =    2 max onsite mixed and CHGCAR
   VOSKOWN=      0    Vosko Wilk Nusair interpolation
   ROPT   =    0.00000   0.00000   0.00000   0.00000
 Ionic relaxation
   EDIFFG = 0.1E-04   stopping-criterion for IOM
   NSW    =      0    number of steps for IOM
   NBLOCK =      1;   KBLOCK =      1    inner block; outer block 
   IBRION =     -1    ionic relax: 0-MD 1-quasi-New 2-CG
   NFREE  =      0    steps in history (QN), initial steepest desc. (CG)
   ISIF   =      2    stress and relaxation
   IWAVPR =     10    prediction:  0-non 1-charg 2-wave 3-comb
   ISYM   =      0    0-nonsym 1-usesym 2-fastsym
   LCORR  =      T    Harris-Foulkes like correction to forces

   POTIM  = 0.5000    time-step for ionic-motion
   TEIN   =    0.0    initial temperature
   TEBEG  =    0.0;   TEEND  =   0.0 temperature during run
   SMASS  =  -3.00    Nose mass-parameter (am)
   estimated Nose-frequenzy (Omega)   =  0.10E-29 period in steps = 0.13E+47 mass=  -0.324E-26a.u.
   SCALEE = 1.0000    scale energy and forces
   NPACO  =    256;   APACO  = 10.0  distance and # of slots for P.C.
   PSTRESS=    0.0 pullay stress

  Mass of Ions in am
   POMASS =  54.94 92.91 55.85121.75
  Ionic Valenz
   ZVAL   =  13.00 13.00  8.00  5.00
  Atomic Wigner-Seitz radii
   RWIGS  =  -1.00 -1.00 -1.00 -1.00
  virtual crystal weights 
   VCA    =   1.00  1.00  1.00  1.00
   NELECT =     843.0000    total number of electrons
   NUPDOWN=      -1.0000    fix difference up-down

 DOS related values:
   EMIN   =  10.00;   EMAX   =-10.00  energy-range for DOS
   EFERMI =   0.00
   ISMEAR =     0;   SIGMA  =   0.05  broadening in eV -4-tet -1-fermi 0-gaus

 Electronic relaxation 2 (details)
   IALGO  =     38    algorithm
   LDIAG  =      T    sub-space diagonalisation (order eigenvalues)
   LSUBROT=      F    optimize rotation matrix (better conditioning)
   TURBO    =      0    0=normal 1=particle mesh
   IRESTART =      0    0=no restart 2=restart with 2 vectors
   NREBOOT  =      0    no. of reboots
   NMIN     =      0    reboot dimension
   EREF     =   0.00    reference energy to select bands
   IMIX   =      4    mixing-type and parameters
     AMIX     =   0.40;   BMIX     =  1.00
     AMIX_MAG =   1.60;   BMIX_MAG =  1.00
     AMIN     =   0.10
     WC   =   100.;   INIMIX=   1;  MIXPRE=   1;  MAXMIX= -45

 Intra band minimization:
   WEIMIN = 0.0000     energy-eigenvalue tresh-hold
   EBREAK =  0.49E-09  absolut break condition
   DEPER  =   0.30     relativ break condition  

   TIME   =   0.40     timestep for ELM

  volume/ion in A,a.u.               =      17.42       117.53
  Fermi-wavevector in a.u.,A,eV,Ry     =   1.298506  2.453821 22.941030  1.686118
  Thomas-Fermi vector in A             =   2.429830
 
 Write flags
   LWAVE        =      F    write WAVECAR
   LDOWNSAMPLE  =      F    k-point downsampling of WAVECAR
   LCHARG       =      F    write CHGCAR
   LVTOT        =      F    write LOCPOT, total local potential
   LVHAR        =      F    write LOCPOT, Hartree potential only
   LELF         =      F    write electronic localiz. function (ELF)
   LORBIT       =      0    0 simple, 1 ext, 2 COOP (PROOUT), +10 PAW based schemes


 Dipole corrections
   LMONO  =      F    monopole corrections only (constant potential shift)
   LDIPOL =      F    correct potential (dipole corrections)
   IDIPOL =      0    1-x, 2-y, 3-z, 4-all directions 
   EPSILON=  1.0000000 bulk dielectric constant

 Exchange correlation treatment:
   GGA     =    --    GGA type
   LEXCH   =     8    internal setting for exchange type
   LIBXC   =     F    Libxc                    
   VOSKOWN =     0    Vosko Wilk Nusair interpolation
   LHFCALC =     F    Hartree Fock is set to
   LHFONE  =     F    Hartree Fock one center treatment
   AEXX    =    0.0000 exact exchange contribution

 Linear response parameters
   LEPSILON=     F    determine dielectric tensor
   LRPA    =     F    only Hartree local field effects (RPA)
   LNABLA  =     F    use nabla operator in PAW spheres
   LVEL    =     F    velocity operator in full k-point grid
   CSHIFT  =0.1000    complex shift for real part using Kramers Kronig
   OMEGAMAX=  -1.0    maximum frequency
   DEG_THRESHOLD= 0.2000000E-02 threshold for treating states as degnerate
   RTIME   =   -0.100 relaxation time in fs
  (WPLASMAI=    0.000 imaginary part of plasma frequency in eV, 0.658/RTIME)
   DFIELD  = 0.0000000 0.0000000 0.0000000 field for delta impulse in time
 
  Optional k-point grid parameters
   LKPOINTS_OPT  =     F    use optional k-point grid
   KPOINTS_OPT_MODE=     1    mode for optional k-point grid
 
 Orbital magnetization related:
   ORBITALMAG=     F  switch on orbital magnetization
   LCHIMAG   =     F  perturbation theory with respect to B field
   DQ        =  0.001000  dq finite difference perturbation B field
   LLRAUG    =     F  two centre corrections for induced B field



--------------------------------------------------------------------------------------------------------


 Static calculation
 charge density and potential will be updated during run
 non-spin polarized calculation
 Variant of blocked Davidson
 Davidson routine will perform the subspace rotation
 perform sub-space diagonalisation
    after iterative eigenvector-optimisation
 modified Broyden-mixing scheme, WC =      100.0
 initial mixing is a Kerker type mixing with AMIX =  0.4000 and BMIX =      1.0000
 Hartree-type preconditioning will be used
 using additional bands           90
 reciprocal scheme for non local part
 use partial core corrections
 calculate Harris-corrections to forces 
   (improved forces if not selfconsistent)
 use gradient corrections 
 use of overlap-Matrix (Vanderbilt PP)
 Gauss-broadening in eV      SIGMA  =   0.05


--------------------------------------------------------------------------------------------------------


  energy-cutoff  :      500.00
  volume of cell :     1689.35
      direct lattice vectors                 reciprocal lattice vectors
    11.909860967  0.000000000  0.000000000     0.083964036 -0.000000000 -0.000000000
     0.000000000 11.909860967  0.000000000     0.000000000  0.083964036 -0.000000000
     0.000000000  0.000000000 11.909860967     0.000000000  0.000000000  0.083964036

  length of vectors
    11.909860967 11.909860967 11.909860967     0.083964036  0.083964036  0.083964036


 
 k-points in units of 2pi/SCALE and weight: K-Spacing Value to Generate K-Mesh: 0.02
   0.01049550  0.01049550  0.01049550       0.031
  -0.01049550  0.01049550  0.01049550       0.031
  -0.01049550 -0.01049550  0.01049550       0.031
   0.01049550 -0.01049550  0.01049550       0.031
   0.03148651  0.01049550  0.01049550       0.031
   0.01049550  0.03148651  0.01049550       0.031
   0.01049550  0.01049550  0.03148651       0.031
  -0.01049550  0.03148651  0.01049550       0.031
  -0.03148651  0.01049550  0.01049550       0.031
  -0.01049550  0.01049550  0.03148651       0.031
  -0.03148651 -0.01049550  0.01049550       0.031
  -0.01049550 -0.03148651  0.01049550       0.031
  -0.01049550 -0.01049550  0.03148651       0.031
   0.01049550 -0.03148651  0.01049550       0.031
   0.03148651 -0.01049550  0.01049550       0.031
   0.01049550 -0.01049550  0.03148651       0.031
   0.03148651  0.03148651  0.01049550       0.031
   0.01049550  0.03148651  0.03148651       0.031
   0.03148651  0.01049550  0.03148651       0.031
  -0.03148651  0.03148651  0.01049550       0.031
  -0.03148651  0.01049550  0.03148651       0.031
  -0.01049550  0.03148651  0.03148651       0.031
  -0.03148651 -0.03148651  0.01049550       0.031
  -0.01049550 -0.03148651  0.03148651       0.031
  -0.03148651 -0.01049550  0.03148651       0.031
   0.03148651 -0.03148651  0.01049550       0.031
   0.03148651 -0.01049550  0.03148651       0.031
   0.01049550 -0.03148651  0.03148651       0.031
   0.03148651  0.03148651  0.03148651       0.031
  -0.03148651  0.03148651  0.03148651       0.031
  -0.03148651 -0.03148651  0.03148651       0.031
   0.03148651 -0.03148651  0.03148651       0.031
 
 k-points in reciprocal lattice and weights: K-Spacing Value to Generate K-Mesh: 0.02
   0.12500000  0.12500000  0.12500000       0.031
  -0.12500000  0.12500000  0.12500000       0.031
  -0.12500000 -0.12500000  0.12500000       0.031
   0.12500000 -0.12500000  0.12500000       0.031
   0.37500000  0.12500000  0.12500000       0.031
   0.12500000  0.37500000  0.12500000       0.031
   0.12500000  0.12500000  0.37500000       0.031
  -0.12500000  0.37500000  0.12500000       0.031
  -0.37500000  0.12500000  0.12500000       0.031
  -0.12500000  0.12500000  0.37500000       0.031
  -0.37500000 -0.12500000  0.12500000       0.031
  -0.12500000 -0.37500000  0.12500000       0.031
  -0.12500000 -0.12500000  0.37500000       0.031
   0.12500000 -0.37500000  0.12500000       0.031
   0.37500000 -0.12500000  0.12500000       0.031
   0.12500000 -0.12500000  0.37500000       0.031
   0.37500000  0.37500000  0.12500000       0.031
   0.12500000  0.37500000  0.37500000       0.031
   0.37500000  0.12500000  0.37500000       0.031
  -0.37500000  0.37500000  0.12500000       0.031
  -0.37500000  0.12500000  0.37500000       0.031
  -0.12500000  0.37500000  0.37500000       0.031
  -0.37500000 -0.37500000  0.12500000       0.031
  -0.12500000 -0.37500000  0.37500000       0.031
  -0.37500000 -0.12500000  0.37500000       0.031
   0.37500000 -0.37500000  0.12500000       0.031
   0.37500000 -0.12500000  0.37500000       0.031
   0.12500000 -0.37500000  0.37500000       0.031
   0.37500000  0.37500000  0.37500000       0.031
  -0.37500000  0.37500000  0.37500000       0.031
  -0.37500000 -0.37500000  0.37500000       0.031
   0.37500000 -0.37500000  0.37500000       0.031
 
 position of ions in fractional coordinates (direct lattice) 
   0.12500000  0.12500000  0.12500000
   0.99782575  0.99782575  0.99782575
   0.99964061  0.99964061  0.50098895
   0.99964061  0.50098895  0.99964061
   0.99966661  0.50004152  0.50004152
   0.50098895  0.99964061  0.99964061
   0.50004152  0.99966661  0.50004152
   0.50004152  0.50004152  0.99966661
   0.50025433  0.50025433  0.50025433
   0.99782575  0.25217425  0.25217425
   0.99964061  0.25035939  0.74901105
   0.99964061  0.74901105  0.25035939
   0.99966661  0.74995848  0.74995848
   0.50098895  0.25035939  0.25035939
   0.50004152  0.25033339  0.74995848
   0.50004152  0.74995848  0.25033339
   0.50025433  0.74974567  0.74974567
   0.25217425  0.99782575  0.25217425
   0.25035939  0.99964061  0.74901105
   0.25035939  0.50098895  0.25035939
   0.25033339  0.50004152  0.74995848
   0.74901105  0.99964061  0.25035939
   0.74995848  0.99966661  0.74995848
   0.74995848  0.50004152  0.25033339
   0.74974567  0.50025433  0.74974567
   0.25217425  0.25217425  0.99782575
   0.25035939  0.25035939  0.50098895
   0.25035939  0.74901105  0.99964061
   0.25033339  0.74995848  0.50004152
   0.74901105  0.25035939  0.99964061
   0.74995848  0.25033339  0.50004152
   0.74995848  0.74995848  0.99966661
   0.74974567  0.74974567  0.50025433
   0.12500000  0.12500000  0.37187251
   0.12500000  0.12500000  0.87812749
   0.12500000  0.62500000  0.37414944
   0.12500000  0.62500000  0.87585056
   0.62500000  0.12500000  0.37414944
   0.62500000  0.12500000  0.87585056
   0.62500000  0.62500000  0.37458143
   0.62500000  0.62500000  0.87541857
   0.12500000  0.37187251  0.12500000
   0.12500000  0.37414944  0.62500000
   0.12500000  0.87812749  0.12500000
   0.12500000  0.87585056  0.62500000
   0.62500000  0.37414944  0.12500000
   0.62500000  0.37458143  0.62500000
   0.62500000  0.87585056  0.12500000
   0.62500000  0.87541857  0.62500000
   0.37187251  0.12500000  0.12500000
   0.37414944  0.12500000  0.62500000
   0.37414944  0.62500000  0.12500000
   0.37458143  0.62500000  0.62500000
   0.87812749  0.12500000  0.12500000
   0.87585056  0.12500000  0.62500000
   0.87585056  0.62500000  0.12500000
   0.87541857  0.62500000  0.62500000
   0.37643421  0.37643421  0.37643421
   0.37639325  0.37639325  0.87360675
   0.37639325  0.87360675  0.37639325
   0.37643421  0.87356579  0.87356579
   0.87360675  0.37639325  0.37639325
   0.87356579  0.37643421  0.87356579
   0.87356579  0.87356579  0.37643421
   0.87360675  0.87360675  0.87360675
   0.25375619  0.99624381  0.99624381
   0.24972540  0.00027460  0.49975001
   0.24972540  0.49975001  0.00027460
   0.24973696  0.50026332  0.50026332
   0.75024999  0.00027460  0.00027460
   0.74973668  0.00026304  0.50026332
   0.74973668  0.50026332  0.00026304
   0.74965662  0.50034338  0.50034338
   0.25375619  0.25375619  0.25375619
   0.24972540  0.24972540  0.75024999
   0.24972540  0.75024999  0.24972540
   0.24973696  0.74973668  0.74973668
   0.75024999  0.24972540  0.24972540
   0.74973668  0.24973696  0.74973668
   0.74973668  0.74973668  0.24973696
   0.74965662  0.74965662  0.74965662
   0.99624381  0.99624381  0.25375619
   0.00027460  0.00027460  0.75024999
   0.00027460  0.49975001  0.24972540
   0.00026304  0.50026332  0.74973668
   0.49975001  0.00027460  0.24972540
   0.50026332  0.00026304  0.74973668
   0.50026332  0.50026332  0.24973696
   0.50034338  0.50034338  0.74965662
   0.99624381  0.25375619  0.99624381
   0.00027460  0.24972540  0.49975001
   0.00027460  0.75024999  0.00027460
   0.00026304  0.74973668  0.50026332
   0.49975001  0.24972540  0.00027460
   0.50026332  0.24973696  0.50026332
   0.50026332  0.74973668  0.00026304
   0.50034338  0.74965662  0.50034338
 
 position of ions in cartesian coordinates  (Angst):
   1.48873262  1.48873262  1.48873262
  11.88396592 11.88396592 11.88396592
  11.90558066 11.90558066  5.96670869
  11.90558066  5.96670869 11.90558066
  11.90589035  5.95542503  5.95542503
   5.96670869 11.90558066 11.90558066
   5.95542503 11.90589035  5.95542503
   5.95542503  5.95542503 11.90589035
   5.95795952  5.95795952  5.95795952
  11.88396592  3.00336029  3.00336029
  11.90558066  2.98174555  8.92061752
  11.90558066  8.92061752  2.98174555
  11.90589035  8.93190118  8.93190118
   5.96670869  2.98174555  2.98174555
   5.95542503  2.98143586  8.93190118
   5.95542503  8.93190118  2.98143586
   5.95795952  8.92936669  8.92936669
   3.00336029 11.88396592  3.00336029
   2.98174555 11.90558066  8.92061752
   2.98174555  5.96670869  2.98174555
   2.98143586  5.95542503  8.93190118
   8.92061752 11.90558066  2.98174555
   8.93190118 11.90589035  8.93190118
   8.93190118  5.95542503  2.98143586
   8.92936669  5.95795952  8.92936669
   3.00336029  3.00336029 11.88396592
   2.98174555  2.98174555  5.96670869
   2.98174555  8.92061752 11.90558066
   2.98143586  8.93190118  5.95542503
   8.92061752  2.98174555 11.90558066
   8.93190118  2.98143586  5.95542503
   8.93190118  8.93190118 11.90589035
   8.92936669  8.92936669  5.95795952
   1.48873262  1.48873262  4.42894993
   1.48873262  1.48873262 10.45837628
   1.48873262  7.44366310  4.45606775
   1.48873262  7.44366310 10.43125846
   7.44366310  1.48873262  4.45606775
   7.44366310  1.48873262 10.43125846
   7.44366310  7.44366310  4.46121272
   7.44366310  7.44366310 10.42611349
   1.48873262  4.42894993  1.48873262
   1.48873262  4.45606775  7.44366310
   1.48873262 10.45837628  1.48873262
   1.48873262 10.43125846  7.44366310
   7.44366310  4.45606775  1.48873262
   7.44366310  4.46121272  7.44366310
   7.44366310 10.43125846  1.48873262
   7.44366310 10.42611349  7.44366310
   4.42894993  1.48873262  1.48873262
   4.45606775  1.48873262  7.44366310
   4.45606775  7.44366310  1.48873262
   4.46121272  7.44366310  7.44366310
  10.45837628  1.48873262  1.48873262
  10.43125846  1.48873262  7.44366310
  10.43125846  7.44366310  1.48873262
  10.42611349  7.44366310  7.44366310
   4.48327910  4.48327910  4.48327910
   4.48279131  4.48279131 10.40453490
   4.48279131 10.40453490  4.48279131
   4.48327910 10.40404711 10.40404711
  10.40453490  4.48279131  4.48279131
  10.40404711  4.48327910 10.40404711
  10.40404711 10.40404711  4.48327910
  10.40453490 10.40453490 10.40453490
   3.02220100 11.86512521 11.86512521
   2.97419481  0.00327043  5.95195316
   2.97419481  5.95195316  0.00327043
   2.97433241  5.95806654  5.95806654
   8.93537305  0.00327043  0.00327043
   8.92925967  0.00313283  5.95806654
   8.92925967  5.95806654  0.00313283
   8.92830606  5.95902015  5.95902015
   3.02220100  3.02220100  3.02220100
   2.97419481  2.97419481  8.93537305
   2.97419481  8.93537305  2.97419481
   2.97433241  8.92925967  8.92925967
   8.93537305  2.97419481  2.97419481
   8.92925967  2.97433241  8.92925967
   8.92925967  8.92925967  2.97433241
   8.92830606  8.92830606  8.92830606
  11.86512521 11.86512521  3.02220100
   0.00327043  0.00327043  8.93537305
   0.00327043  5.95195316  2.97419481
   0.00313283  5.95806654  8.92925967
   5.95195316  0.00327043  2.97419481
   5.95806654  0.00313283  8.92925967
   5.95806654  5.95806654  2.97433241
   5.95902015  5.95902015  8.92830606
  11.86512521  3.02220100 11.86512521
   0.00327043  2.97419481  5.95195316
   0.00327043  8.93537305  0.00327043
   0.00313283  8.92925967  5.95806654
   5.95195316  2.97419481  0.00327043
   5.95806654  2.97433241  5.95806654
   5.95806654  8.92925967  0.00313283
   5.95902015  8.92830606  5.95902015
 


--------------------------------------------------------------------------------------------------------


 k-point   1 :   0.1250 0.1250 0.1250  plane waves:   42892
 k-point   2 :  -0.1250 0.1250 0.1250  plane waves:   42892
 k-point   3 :  -0.1250-0.1250 0.1250  plane waves:   42892
 k-point   4 :   0.1250-0.1250 0.1250  plane waves:   42892
 k-point   5 :   0.3750 0.1250 0.1250  plane waves:   42879
 k-point   6 :   0.1250 0.3750 0.1250  plane waves:   42879
 k-point   7 :   0.1250 0.1250 0.3750  plane waves:   42879
 k-point   8 :  -0.1250 0.3750 0.1250  plane waves:   42879
 k-point   9 :  -0.3750 0.1250 0.1250  plane waves:   42879
 k-point  10 :  -0.1250 0.1250 0.3750  plane waves:   42879
 k-point  11 :  -0.3750-0.1250 0.1250  plane waves:   42879
 k-point  12 :  -0.1250-0.3750 0.1250  plane waves:   42879
 k-point  13 :  -0.1250-0.1250 0.3750  plane waves:   42879
 k-point  14 :   0.1250-0.3750 0.1250  plane waves:   42879
 k-point  15 :   0.3750-0.1250 0.1250  plane waves:   42879
 k-point  16 :   0.1250-0.1250 0.3750  plane waves:   42879
 k-point  17 :   0.3750 0.3750 0.1250  plane waves:   42888
 k-point  18 :   0.1250 0.3750 0.3750  plane waves:   42888
 k-point  19 :   0.3750 0.1250 0.3750  plane waves:   42888
 k-point  20 :  -0.3750 0.3750 0.1250  plane waves:   42888
 k-point  21 :  -0.3750 0.1250 0.3750  plane waves:   42888
 k-point  22 :  -0.1250 0.3750 0.3750  plane waves:   42888
 k-point  23 :  -0.3750-0.3750 0.1250  plane waves:   42888
 k-point  24 :  -0.1250-0.3750 0.3750  plane waves:   42888
 k-point  25 :  -0.3750-0.1250 0.3750  plane waves:   42888
 k-point  26 :   0.3750-0.3750 0.1250  plane waves:   42888
 k-point  27 :   0.3750-0.1250 0.3750  plane waves:   42888
 k-point  28 :   0.1250-0.3750 0.3750  plane waves:   42888
 k-point  29 :   0.3750 0.3750 0.3750  plane waves:   42868
 k-point  30 :  -0.3750 0.3750 0.3750  plane waves:   42868
 k-point  31 :  -0.3750-0.3750 0.3750  plane waves:   42868
 k-point  32 :   0.3750-0.3750 0.3750  plane waves:   42868

 maximum and minimum number of plane-waves per node :      5429     5312

 maximum number of plane-waves:     42892
 maximum index in each direction: 
   IXMAX=   22   IYMAX=   22   IZMAX=   21
   IXMIN=  -22   IYMIN=  -22   IZMIN=  -22


 parallel 3D FFT for wavefunctions:
    minimum data exchange during FFTs selected (reduces bandwidth)
 parallel 3D FFT for charge:
    minimum data exchange during FFTs selected (reduces bandwidth)


 total amount of memory used by VASP MPI-rank0   339258. kBytes
=======================================================================

   base      :      30000. kBytes
   nonl-proj :     107913. kBytes
   fftplans  :       6154. kBytes
   grid      :      10964. kBytes
   one-center:        202. kBytes
   wavefun   :     184025. kBytes
 
     INWAV:  cpu time      0.0000: real time      0.0002
 Broyden mixing: mesh for mixing (old mesh)
   NGX = 43   NGY = 43   NGZ = 43
  (NGX  =180   NGY  =180   NGZ  =180)
  gives a total of  79507 points

 initial charge density was supplied:
 charge density of overlapping atoms calculated
 number of electron     845.0000000 magnetization 
 keeping initial charge density in first step


--------------------------------------------------------------------------------------------------------


 Maximum index for augmentation-charges          983 (set IRDMAX)


--------------------------------------------------------------------------------------------------------


 First call to EWALD:  gamma=   0.149
 Maximum number of real-space cells 3x 3x 3
 Maximum number of reciprocal cells 3x 3x 3

    FEWALD:  cpu time      0.0029: real time      0.0030


--------------------------------------- Iteration      1(   1)  ---------------------------------------


    POTLOK:  cpu time      0.0887: real time      0.0978
    SETDIJ:  cpu time      0.0130: real time      0.0150
     EDDAV:  cpu time    138.0409: real time    140.2280
       DOS:  cpu time      0.0071: real time      0.0082
    --------------------------------------------
      LOOP:  cpu time    138.1497: real time    140.3490

 eigenvalue-minimisations  : 32768
 total energy-change (2. order) : 0.1158405E+05  (-0.3480030E+05)
 number of electron     845.0000000 magnetization 
 augmentation part      845.0000000 magnetization 

 Free energy of the ion-electron system (eV)
  ---------------------------------------------------
  alpha Z        PSCENC =      3073.63941239
  Ewald energy   TEWEN  =    -61282.00308446
  -Hartree energ DENC   =    -18115.95639065
  -exchange      EXHF   =         0.00000000
  -V(xc)+E(xc)   XCENC  =       562.75168819
  PAW double counting   =     64120.58336368   -62081.00385449
  entropy T*S    EENTRO =        -0.02994507
  eigenvalues    EBANDS =      9698.46987079
  atomic energy  EATOM  =     75607.59996922
  Solvation  Ediel_sol  =         0.00000000
  ---------------------------------------------------
  free energy    TOTEN  =     11584.05102960 eV

  energy without entropy =    11584.08097467  energy(sigma->0) =    11584.06600213


--------------------------------------------------------------------------------------------------------




--------------------------------------- Iteration      1(   2)  ---------------------------------------


     EDDAV:  cpu time    138.3082: real time    140.5332
       DOS:  cpu time      0.0062: real time      0.0063
    --------------------------------------------
      LOOP:  cpu time    138.3144: real time    140.5394

 eigenvalue-minimisations  : 32832
 total energy-change (2. order) :-0.1070614E+05  (-0.1041705E+05)
 number of electron     845.0000000 magnetization 
 augmentation part      845.0000000 magnetization 

 Free energy of the ion-electron system (eV)
  ---------------------------------------------------
  alpha Z        PSCENC =      3073.63941239
  Ewald energy   TEWEN  =    -61282.00308446
  -Hartree energ DENC   =    -18115.95639065
  -exchange      EXHF   =         0.00000000
  -V(xc)+E(xc)   XCENC  =       562.75168819
  PAW double counting   =     64120.58336368   -62081.00385449
  entropy T*S    EENTRO =        -0.03443130
  eigenvalues    EBANDS =     -1007.66182854
  atomic energy  EATOM  =     75607.59996922
  Solvation  Ediel_sol  =         0.00000000
  ---------------------------------------------------
  free energy    TOTEN  =       877.91484404 eV

  energy without entropy =      877.94927534  energy(sigma->0) =      877.93205969


--------------------------------------------------------------------------------------------------------




--------------------------------------- Iteration      1(   3)  ---------------------------------------


     EDDAV:  cpu time    156.6116: real time    159.0566
       DOS:  cpu time      0.0063: real time      0.0063
    --------------------------------------------
      LOOP:  cpu time    156.6179: real time    159.0629

 eigenvalue-minimisations  : 38488
 total energy-change (2. order) :-0.1437806E+04  (-0.1350882E+04)
 number of electron     845.0000000 magnetization 
 augmentation part      845.0000000 magnetization 

 Free energy of the ion-electron system (eV)
  ---------------------------------------------------
  alpha Z        PSCENC =      3073.63941239
  Ewald energy   TEWEN  =    -61282.00308446
  -Hartree energ DENC   =    -18115.95639065
  -exchange      EXHF   =         0.00000000
  -V(xc)+E(xc)   XCENC  =       562.75168819
  PAW double counting   =     64120.58336368   -62081.00385449
  entropy T*S    EENTRO =        -0.02292232
  eigenvalues    EBANDS =     -2445.47938929
  atomic energy  EATOM  =     75607.59996922
  Solvation  Ediel_sol  =         0.00000000
  ---------------------------------------------------
  free energy    TOTEN  =      -559.89120773 eV

  energy without entropy =     -559.86828541  energy(sigma->0) =     -559.87974657


--------------------------------------------------------------------------------------------------------




--------------------------------------- Iteration      1(   4)  ---------------------------------------


     EDDAV:  cpu time    210.7299: real time    214.0131
       DOS:  cpu time      0.0066: real time      0.0066
    --------------------------------------------
      LOOP:  cpu time    210.7365: real time    214.0197

 eigenvalue-minimisations  : 55296
 total energy-change (2. order) :-0.2453510E+03  (-0.2394227E+03)
 number of electron     845.0000000 magnetization 
 augmentation part      845.0000000 magnetization 

 Free energy of the ion-electron system (eV)
  ---------------------------------------------------
  alpha Z        PSCENC =      3073.63941239
  Ewald energy   TEWEN  =    -61282.00308446
  -Hartree energ DENC   =    -18115.95639065
  -exchange      EXHF   =         0.00000000
  -V(xc)+E(xc)   XCENC  =       562.75168819
  PAW double counting   =     64120.58336368   -62081.00385449
  entropy T*S    EENTRO =        -0.05012865
  eigenvalues    EBANDS =     -2690.80322996
  atomic energy  EATOM  =     75607.59996922
  Solvation  Ediel_sol  =         0.00000000
  ---------------------------------------------------
  free energy    TOTEN  =      -805.24225473 eV

  energy without entropy =     -805.19212608  energy(sigma->0) =     -805.21719041


--------------------------------------------------------------------------------------------------------




--------------------------------------- Iteration      1(   5)  ---------------------------------------


     EDDAV:  cpu time    220.8896: real time    224.3334
       DOS:  cpu time      0.0066: real time      0.0066
    CHARGE:  cpu time      3.0256: real time      3.0697
    MIXING:  cpu time      0.0023: real time      0.0034
    --------------------------------------------
      LOOP:  cpu time    223.9241: real time    227.4132

 eigenvalue-minimisations  : 58472
 total energy-change (2. order) :-0.2264594E+02  (-0.2247293E+02)
 number of electron     842.9999830 magnetization 
 augmentation part      148.7633895 magnetization 

 Broyden mixing:
  rms(total) = 0.65590E+01    rms(broyden)= 0.65584E+01
  rms(prec ) = 0.72609E+01
  weight for this iteration     100.00

 Free energy of the ion-electron system (eV)
  ---------------------------------------------------
  alpha Z        PSCENC =      3073.63941239
  Ewald energy   TEWEN  =    -61282.00308446
  -Hartree energ DENC   =    -18115.95639065
  -exchange      EXHF   =         0.00000000
  -V(xc)+E(xc)   XCENC  =       562.75168819
  PAW double counting   =     64120.58336368   -62081.00385449
  entropy T*S    EENTRO =        -0.04997231
  eigenvalues    EBANDS =     -2713.44932443
  atomic energy  EATOM  =     75607.59996922
  Solvation  Ediel_sol  =         0.00000000
  ---------------------------------------------------
  free energy    TOTEN  =      -827.88819286 eV

  energy without entropy =     -827.83822055  energy(sigma->0) =     -827.86320670


--------------------------------------------------------------------------------------------------------




--------------------------------------- Iteration      1(   6)  ---------------------------------------


    POTLOK:  cpu time      0.0671: real time      0.0676
[...]
   0.109E+02 -.109E+02 0.109E+02   -.109E+02 0.109E+02 -.109E+02   -.126E-01 0.126E-01 -.127E-01   -.399E-02 -.109E-02 0.378E-02
   -.184E+03 -.184E+03 0.184E+03   0.183E+03 0.183E+03 -.183E+03   0.105E+01 0.105E+01 -.105E+01   0.153E-02 0.407E-02 0.338E-02
   -.207E+02 -.207E+02 -.448E+02   0.207E+02 0.207E+02 0.449E+02   -.755E-01 -.755E-01 -.999E-01   0.230E-02 0.556E-02 -.352E-03
   -.207E+02 0.448E+02 0.207E+02   0.207E+02 -.449E+02 -.207E+02   -.755E-01 0.999E-01 0.755E-01   0.121E-02 -.102E-02 0.154E-02
   -.399E+01 0.191E+02 -.191E+02   0.409E+01 -.191E+02 0.191E+02   -.950E-01 0.442E-01 -.442E-01   0.167E-02 -.198E-02 -.503E-03
   0.448E+02 -.207E+02 0.207E+02   -.449E+02 0.207E+02 -.207E+02   0.999E-01 -.755E-01 0.755E-01   -.641E-02 0.257E-02 -.984E-03
   0.191E+02 -.399E+01 -.191E+02   -.191E+02 0.409E+01 0.191E+02   0.443E-01 -.950E-01 -.442E-01   -.628E-02 0.183E-02 -.286E-02
   0.191E+02 0.191E+02 0.399E+01   -.191E+02 -.191E+02 -.409E+01   0.442E-01 0.443E-01 0.950E-01   -.352E-02 -.241E-02 -.112E-02
   0.109E+02 0.109E+02 -.109E+02   -.109E+02 -.109E+02 0.109E+02   -.126E-01 -.126E-01 0.127E-01   -.323E-02 -.677E-03 -.270E-02
   -.518E-03 -.727E-03 -.151E+03   0.409E-13 -.426E-13 0.152E+03   -.270E-04 -.307E-04 -.114E+01   0.529E-03 0.743E-03 -.977E-04
   -.666E-03 -.729E-03 0.151E+03   0.102E-13 -.142E-12 -.152E+03   -.216E-04 -.272E-04 0.114E+01   0.672E-03 0.736E-03 0.213E-04
   -.456E-03 0.740E-03 -.172E+02   0.249E-13 0.657E-13 0.174E+02   -.194E-04 0.347E-04 -.165E+00   0.458E-03 -.757E-03 -.511E-03
   -.414E-03 0.720E-03 0.172E+02   0.364E-13 -.142E-13 -.174E+02   -.182E-04 0.282E-04 0.165E+00   0.420E-03 -.728E-03 0.575E-03
   0.491E-03 -.710E-03 -.172E+02   -.817E-13 0.622E-13 0.174E+02   0.234E-04 -.321E-04 -.165E+00   -.490E-03 0.718E-03 -.397E-03
   0.679E-03 -.736E-03 0.172E+02   0.253E-13 0.728E-13 -.174E+02   0.328E-04 -.331E-04 0.165E+00   -.707E-03 0.754E-03 0.426E-03
   0.432E-03 0.700E-03 -.535E+01   -.284E-13 -.711E-14 0.541E+01   0.179E-04 0.271E-04 -.647E-01   -.441E-03 -.705E-03 -.844E-03
   0.431E-03 0.735E-03 0.535E+01   -.106E-12 0.133E-13 -.541E+01   0.186E-04 0.307E-04 0.647E-01   -.430E-03 -.751E-03 0.808E-03
   -.732E-03 -.151E+03 0.300E-03   0.129E-13 0.152E+03 -.475E-13   -.259E-04 -.114E+01 0.794E-05   0.735E-03 0.183E-02 -.300E-03
   -.561E-03 -.172E+02 -.321E-03   -.453E-13 0.174E+02 0.152E-12   -.224E-04 -.166E+00 -.139E-04   0.565E-03 0.130E-02 0.329E-03
   -.462E-03 0.151E+03 0.327E-03   0.240E-13 -.152E+03 -.684E-13   -.270E-04 0.114E+01 0.145E-04   0.482E-03 -.184E-02 -.341E-03
   -.302E-03 0.172E+02 -.312E-03   0.320E-13 -.174E+02 -.533E-14   -.131E-04 0.166E+00 -.168E-04   0.303E-03 -.125E-02 0.323E-03
   0.710E-03 -.172E+02 0.288E-03   0.131E-12 0.174E+02 0.675E-13   0.348E-04 -.165E+00 0.115E-04   -.725E-03 0.636E-03 -.298E-03
   0.603E-03 -.535E+01 -.297E-03   0.515E-13 0.541E+01 0.338E-13   0.253E-04 -.647E-01 -.138E-04   -.611E-03 0.153E-03 0.308E-03
   0.448E-03 0.172E+02 0.268E-03   -.373E-13 -.174E+02 0.183E-12   0.209E-04 0.165E+00 0.124E-04   -.458E-03 -.558E-03 -.269E-03
   0.276E-03 0.535E+01 -.257E-03   -.853E-13 -.541E+01 0.284E-13   0.116E-04 0.647E-01 -.832E-05   -.277E-03 -.212E-03 0.256E-03
   -.151E+03 -.930E-03 0.383E-03   0.152E+03 0.391E-13 -.577E-13   -.114E+01 -.317E-04 0.809E-05   0.222E-02 0.933E-03 -.389E-03
   -.172E+02 -.804E-03 -.389E-03   0.174E+02 0.675E-13 0.140E-12   -.166E+00 -.367E-04 -.194E-04   0.195E-02 0.823E-03 0.409E-03
   -.172E+02 0.911E-03 0.275E-03   0.174E+02 0.444E-13 -.178E-13   -.165E+00 0.412E-04 0.139E-04   0.117E-02 -.926E-03 -.283E-03
   -.535E+01 0.823E-03 -.282E-03   0.541E+01 -.213E-13 0.000E+00   -.648E-01 0.335E-04 -.958E-05   0.849E-03 -.835E-03 0.282E-03
   0.151E+03 -.627E-03 0.206E-03   -.152E+03 0.697E-13 -.115E-12   0.114E+01 -.283E-04 0.123E-04   -.225E-02 0.642E-03 -.212E-03
   0.172E+02 -.541E-03 -.227E-03   -.174E+02 -.586E-13 0.136E-12   0.166E+00 -.256E-04 -.105E-04   -.189E-02 0.552E-03 0.227E-03
   0.172E+02 0.678E-03 0.318E-03   -.174E+02 -.875E-13 0.302E-13   0.165E+00 0.312E-04 0.143E-04   -.115E-02 -.692E-03 -.327E-03
   0.535E+01 0.499E-03 -.278E-03   -.541E+01 0.693E-13 0.879E-13   0.648E-01 0.200E-04 -.113E-04   -.858E-03 -.507E-03 0.286E-03
   -.203E+02 -.203E+02 -.203E+02   0.207E+02 0.207E+02 0.207E+02   -.379E+00 -.379E+00 -.379E+00   0.173E-02 0.105E-02 -.402E-03
   -.225E+02 -.225E+02 0.225E+02   0.228E+02 0.228E+02 -.228E+02   -.396E+00 -.396E+00 0.396E+00   0.179E-02 0.991E-03 0.424E-03
   -.225E+02 0.225E+02 -.225E+02   0.228E+02 -.228E+02 0.228E+02   -.396E+00 0.396E+00 -.396E+00   0.184E-02 -.116E-02 -.291E-03
   -.203E+02 0.203E+02 0.203E+02   0.207E+02 -.207E+02 -.207E+02   -.379E+00 0.379E+00 0.379E+00   0.171E-02 -.955E-03 0.310E-03
   0.225E+02 -.225E+02 -.225E+02   -.228E+02 0.228E+02 0.228E+02   0.396E+00 -.396E+00 -.396E+00   -.182E-02 0.120E-02 -.266E-03
   0.203E+02 -.203E+02 0.203E+02   -.207E+02 0.207E+02 -.207E+02   0.379E+00 -.379E+00 0.379E+00   -.170E-02 0.119E-02 0.261E-03
   0.203E+02 0.203E+02 -.203E+02   -.207E+02 -.207E+02 0.207E+02   0.379E+00 0.379E+00 -.379E+00   -.178E-02 -.109E-02 -.137E-03
   0.225E+02 0.225E+02 0.225E+02   -.228E+02 -.228E+02 -.228E+02   0.396E+00 0.396E+00 0.396E+00   -.179E-02 -.130E-02 0.136E-03
   -.649E+02 0.649E+02 0.649E+02   0.658E+02 -.658E+02 -.658E+02   -.843E+00 0.843E+00 0.843E+00   0.622E-03 -.259E-03 0.101E-02
   -.771E+01 0.771E+01 -.191E+02   0.781E+01 -.781E+01 0.192E+02   -.104E+00 0.104E+00 -.476E-01   0.623E-03 -.453E-03 -.215E-03
   -.771E+01 -.191E+02 0.771E+01   0.781E+01 0.192E+02 -.781E+01   -.104E+00 -.476E-01 0.104E+00   0.713E-04 -.877E-03 0.105E-02
   -.218E+01 -.672E+01 -.672E+01   0.220E+01 0.678E+01 0.678E+01   -.328E-01 -.451E-01 -.452E-01   0.526E-03 -.858E-03 -.324E-03
   0.191E+02 0.771E+01 0.771E+01   -.192E+02 -.781E+01 -.781E+01   0.477E-01 0.104E+00 0.104E+00   -.189E-02 0.426E-03 -.587E-03
   0.672E+01 0.218E+01 -.672E+01   -.678E+01 -.220E+01 0.678E+01   0.452E-01 0.328E-01 -.451E-01   -.186E-02 0.395E-04 -.147E-02
   0.672E+01 -.672E+01 0.218E+01   -.678E+01 0.678E+01 -.220E+01   0.452E-01 -.451E-01 0.328E-01   -.159E-02 -.494E-03 0.114E-03
   0.436E+01 -.436E+01 -.436E+01   -.435E+01 0.435E+01 0.435E+01   -.370E-01 0.371E-01 0.371E-01   -.147E-02 -.427E-03 -.864E-03
   -.649E+02 -.649E+02 -.649E+02   0.658E+02 0.658E+02 0.658E+02   -.843E+00 -.843E+00 -.843E+00   0.693E-03 0.171E-02 -.172E-02
   -.771E+01 -.771E+01 0.191E+02   0.781E+01 0.781E+01 -.192E+02   -.104E+00 -.104E+00 0.476E-01   0.380E-03 0.154E-02 0.625E-03
   -.771E+01 0.191E+02 -.771E+01   0.781E+01 -.192E+02 0.781E+01   -.104E+00 0.476E-01 -.104E+00   0.181E-03 -.376E-03 -.130E-02
   -.218E+01 0.672E+01 0.672E+01   0.220E+01 -.678E+01 -.678E+01   -.328E-01 0.452E-01 0.452E-01   0.586E-03 -.428E-03 0.864E-03
   0.191E+02 -.771E+01 -.771E+01   -.192E+02 0.781E+01 0.781E+01   0.477E-01 -.104E+00 -.104E+00   -.243E-02 0.646E-03 -.280E-03
   0.672E+01 -.218E+01 0.672E+01   -.678E+01 0.220E+01 -.678E+01   0.453E-01 -.328E-01 0.451E-01   -.208E-02 0.725E-03 0.170E-02
   0.672E+01 0.672E+01 -.218E+01   -.678E+01 -.678E+01 0.220E+01   0.452E-01 0.451E-01 -.328E-01   -.101E-02 -.543E-03 -.782E-04
   0.436E+01 0.436E+01 0.436E+01   -.435E+01 -.435E+01 -.435E+01   -.370E-01 -.371E-01 -.371E-01   -.132E-02 -.359E-03 0.145E-02
   0.649E+02 0.649E+02 -.649E+02   -.658E+02 -.658E+02 0.658E+02   0.843E+00 0.843E+00 -.843E+00   0.149E-04 -.102E-02 -.984E-03
   0.771E+01 0.771E+01 0.191E+02   -.781E+01 -.781E+01 -.192E+02   0.104E+00 0.104E+00 0.476E-01   0.129E-04 -.654E-03 0.967E-03
   0.771E+01 -.191E+02 -.771E+01   -.781E+01 0.192E+02 0.781E+01   0.104E+00 -.476E-01 -.104E+00   0.673E-03 -.822E-03 -.141E-02
   0.218E+01 -.672E+01 0.672E+01   -.220E+01 0.678E+01 -.678E+01   0.328E-01 -.452E-01 0.452E-01   0.314E-03 -.848E-03 0.800E-03
   -.191E+02 0.771E+01 -.771E+01   0.192E+02 -.781E+01 0.781E+01   -.477E-01 0.104E+00 -.104E+00   0.108E-02 0.103E-02 -.323E-03
   -.672E+01 0.218E+01 0.672E+01   0.678E+01 -.220E+01 -.678E+01   -.452E-01 0.328E-01 0.451E-01   0.134E-02 0.385E-03 0.165E-02
   -.672E+01 -.672E+01 -.218E+01   0.678E+01 0.678E+01 0.220E+01   -.452E-01 -.451E-01 -.328E-01   0.725E-03 -.678E-03 -.615E-03
   -.436E+01 -.436E+01 0.436E+01   0.435E+01 0.435E+01 -.435E+01   0.370E-01 0.371E-01 -.371E-01   0.750E-03 -.368E-03 0.126E-02
   0.649E+02 -.649E+02 0.649E+02   -.658E+02 0.658E+02 -.658E+02   0.843E+00 -.843E+00 0.843E+00   0.598E-03 0.185E-02 0.828E-03
   0.771E+01 -.771E+01 -.191E+02   -.781E+01 0.781E+01 0.192E+02   0.104E+00 -.104E+00 -.476E-01   0.280E-03 0.171E-02 -.899E-04
   0.771E+01 0.191E+02 0.771E+01   -.781E+01 -.192E+02 -.781E+01   0.104E+00 0.476E-01 0.104E+00   0.308E-03 -.161E-03 0.624E-03
   0.218E+01 0.672E+01 -.672E+01   -.220E+01 -.678E+01 0.678E+01   0.328E-01 0.452E-01 -.452E-01   -.132E-03 -.104E-03 -.690E-03
   -.191E+02 -.771E+01 0.771E+01   0.192E+02 0.781E+01 -.781E+01   -.477E-01 -.104E+00 0.104E+00   0.127E-02 0.377E-03 0.233E-03
   -.672E+01 -.218E+01 -.672E+01   0.678E+01 0.220E+01 0.678E+01   -.452E-01 -.329E-01 -.451E-01   0.126E-02 0.714E-03 -.132E-02
   -.672E+01 0.672E+01 0.218E+01   0.678E+01 -.678E+01 -.220E+01   -.452E-01 0.452E-01 0.328E-01   0.597E-03 -.847E-03 -.144E-03
   -.436E+01 0.436E+01 -.436E+01   0.435E+01 -.435E+01 0.435E+01   0.370E-01 -.370E-01 0.371E-01   0.794E-03 -.613E-03 -.730E-03
 -----------------------------------------------------------------------------------------------
   -.206E-02 -.195E-02 0.895E-03   -.524E-13 -.129E-12 0.370E-12   -.100E-03 -.114E-03 0.862E-04   0.217E-02 0.201E-02 -.952E-03
 
 
 POSITION                                       TOTAL-FORCE (eV/Angst)
 -----------------------------------------------------------------------------------
      1.48873      1.48873      1.48873        -0.000003     -0.000006      0.000010
     11.88397     11.88397     11.88397        -0.105517     -0.105474     -0.105561
     11.90558     11.90558      5.96671        -0.007704     -0.007657      0.035213
     11.90558      5.96671     11.90558        -0.007734      0.035244     -0.007685
     11.90589      5.95543      5.95543         0.001169      0.016398      0.016354
      5.96671     11.90558     11.90558         0.035209     -0.007701     -0.007659
      5.95543     11.90589      5.95543         0.016376      0.001159      0.016401
      5.95543      5.95543     11.90589         0.016390      0.016394      0.001233
      5.95796      5.95796      5.95796        -0.004190     -0.004167     -0.004194
     11.88397      3.00336      3.00336        -0.105537      0.105515      0.105547
     11.90558      2.98175      8.92062        -0.007702      0.007664     -0.035166
     11.90558      8.92062      2.98175        -0.007734     -0.035293      0.007682
     11.90589      8.93190      8.93190         0.001176     -0.016409     -0.016360
      5.96671      2.98175      2.98175         0.035212      0.007713      0.007655
      5.95543      2.98144      8.93190         0.016370     -0.001192     -0.016397
      5.95543      8.93190      2.98144         0.016376     -0.016390     -0.001204
      5.95796      8.92937      8.92937        -0.004178      0.004185      0.004172
      3.00336     11.88397      3.00336         0.105558     -0.105491      0.105546
      2.98175     11.90558      8.92062         0.007705     -0.007654     -0.035173
      2.98175      5.96671      2.98175         0.007731      0.035244      0.007684
      2.98144      5.95543      8.93190        -0.001170      0.016422     -0.016373
      8.92062     11.90558      2.98175        -0.035253     -0.007705      0.007663
      8.93190     11.90589      8.93190        -0.016387      0.001171     -0.016416
      8.93190      5.95543      2.98144        -0.016380      0.016394     -0.001221
      8.92937      5.95796      8.92937         0.004190     -0.004185      0.004206
      3.00336      3.00336     11.88397         0.105529      0.105489     -0.105552
      2.98175      2.98175      5.96671         0.007720      0.007673      0.035184
      2.98175      8.92062     11.90558         0.007745     -0.035266     -0.007703
      2.98144      8.93190      5.95543        -0.001149     -0.016412      0.016364
      8.92062      2.98175     11.90558        -0.035222      0.007733     -0.007672
      8.93190      2.98144      5.95543        -0.016364     -0.001176      0.016389
      8.93190      8.93190     11.90589        -0.016381     -0.016409      0.001222
      8.92937      8.92937      5.95796         0.004148      0.004178     -0.004174
      1.48873      1.48873      4.42895        -0.000016     -0.000014     -0.126284
      1.48873      1.48873     10.45838        -0.000016     -0.000020      0.126283
      1.48873      7.44366      4.45607        -0.000017      0.000018     -0.010962
      1.48873      7.44366     10.43126        -0.000012      0.000021      0.010965
      7.44366      1.48873      4.45607         0.000024     -0.000024     -0.010976
      7.44366      1.48873     10.43126         0.000005     -0.000015      0.010975
      7.44366      7.44366      4.46121         0.000009      0.000023     -0.005156
      7.44366      7.44366     10.42611         0.000020      0.000015      0.005156
      1.48873      4.42895      1.48873        -0.000023     -0.126308      0.000007
      1.48873      4.45607      7.44366        -0.000018     -0.011021     -0.000006
      1.48873     10.45838      1.48873        -0.000007      0.126299     -0.000001
      1.48873     10.43126      7.44366        -0.000013      0.011022     -0.000006
      7.44366      4.45607      1.48873         0.000020     -0.011010      0.000001
      7.44366      4.46121      7.44366         0.000017     -0.005193     -0.000003
      7.44366     10.43126      1.48873         0.000011      0.011011      0.000011
      7.44366     10.42611      7.44366         0.000011      0.005189     -0.000009
      4.42895      1.48873      1.48873        -0.126342     -0.000028      0.000001
      4.45607      1.48873      7.44366        -0.011042     -0.000017      0.000001
      4.45607      7.44366      1.48873        -0.011030      0.000027      0.000006
      4.46121      7.44366      7.44366        -0.005221      0.000021     -0.000010
     10.45838      1.48873      1.48873         0.126341     -0.000013      0.000007
     10.43126      1.48873      7.44366         0.011045     -0.000014     -0.000011
     10.43126      7.44366      1.48873         0.011031      0.000018      0.000005
     10.42611      7.44366      7.44366         0.005218      0.000013     -0.000003
      4.48328      4.48328      4.48328        -0.035932     -0.035911     -0.035856
      4.48279      4.48279     10.40453        -0.094161     -0.094144      0.094090
      4.48279     10.40453      4.48279        -0.094153      0.094127     -0.094089
      4.48328     10.40405     10.40405        -0.035930      0.035917      0.035861
     10.40453      4.48279      4.48279         0.094160     -0.094137     -0.094087
     10.40405      4.48328     10.40405         0.035927     -0.035914      0.035859
     10.40405     10.40405      4.48328         0.035920      0.035916     -0.035857
     10.40453     10.40453     10.40453         0.094159      0.094131      0.094090
      3.02220     11.86513     11.86513         0.073487     -0.073474     -0.073495
      2.97419      0.00327      5.95195        -0.001862      0.001894      0.022974
      2.97419      5.95195      0.00327        -0.001854      0.023028      0.001856
      2.97433      5.95807      5.95807        -0.011994      0.012101      0.012066
      8.93537      0.00327      0.00327        -0.022954      0.001862      0.001918
      8.92926      0.00313      5.95807        -0.012045      0.012003      0.012123
      8.92926      5.95807      0.00313        -0.012045      0.012078      0.012012
      8.92831      5.95902      5.95902        -0.024586      0.024616      0.024623
      3.02220      3.02220      3.02220         0.073493      0.073455      0.073513
      2.97419      2.97419      8.93537        -0.001852     -0.001907     -0.022981
      2.97419      8.93537      2.97419        -0.001860     -0.023005     -0.001856
      2.97433      8.92926      8.92926        -0.011999     -0.012084     -0.012075
      8.93537      2.97419      2.97419        -0.022936     -0.001875     -0.001895
      8.92926      2.97433      8.92926        -0.012033     -0.012003     -0.012114
      8.92926      8.92926      2.97433        -0.012068     -0.012071     -0.012027
      8.92831      8.92831      8.92831        -0.024593     -0.024609     -0.024639
     11.86513     11.86513      3.02220        -0.073475     -0.073435      0.073467
      0.00327      0.00327      8.93537         0.001859      0.001900     -0.022994
      0.00327      5.95195      2.97419         0.001848      0.023027     -0.001852
      0.00313      5.95807      8.92926         0.011983      0.012103     -0.012073
      5.95195      0.00327      2.97419         0.022963      0.001847     -0.001898
      5.95807      0.00313      8.92926         0.012043      0.011991     -0.012113
      5.95807      5.95807      2.97433         0.012056      0.012079     -0.012006
      5.95902      5.95902      8.92831         0.024592      0.024611     -0.024628
     11.86513      3.02220     11.86513        -0.073511      0.073444     -0.073492
      0.00327      2.97419      5.95195         0.001847     -0.001911      0.022971
      0.00327      8.93537      0.00327         0.001858     -0.023015      0.001870
      0.00313      8.92926      5.95807         0.012000     -0.012098      0.012085
      5.95195      2.97419      0.00327         0.022957     -0.001866      0.001891
      5.95807      2.97433      5.95807         0.012041     -0.012003      0.012109
      5.95807      8.92926      0.00313         0.012062     -0.012056      0.012021
      5.95902      8.92831      5.95902         0.024596     -0.024601      0.024622
 -----------------------------------------------------------------------------------
    total drift:                                0.000003     -0.000057      0.000029


--------------------------------------------------------------------------------------------------------



  FREE ENERGIE OF THE ION-ELECTRON SYSTEM (eV)
  ---------------------------------------------------
  free  energy   TOTEN  =      -784.06739901 eV

  energy  without entropy=     -784.01664380  energy(sigma->0) =     -784.04202140
 


--------------------------------------------------------------------------------------------------------


    POTLOK:  cpu time      0.0770: real time      0.0807


--------------------------------------------------------------------------------------------------------


     LOOP+:  cpu time   6090.5081: real time   6186.1247
    4ORBIT:  cpu time      0.0000: real time      0.0000

 total amount of memory used by VASP MPI-rank0   339258. kBytes
=======================================================================

   base      :      30000. kBytes
   nonl-proj :     107913. kBytes
   fftplans  :       6154. kBytes
   grid      :      10964. kBytes
   one-center:        202. kBytes
   wavefun   :     184025. kBytes
 
  
  
 General timing and accounting informations for this job:
 ========================================================
  
                  Total CPU time used (sec):     6168.933
                            User time (sec):     6080.744
                          System time (sec):       88.188
                         Elapsed time (sec):     6266.702
  
                   Maximum memory used (kb):      560116.
                   Average memory used (kb):          N/A
  
                          Minor page faults:        96966
                          Major page faults:         8648
                 Voluntary context switches:          765
